/*--------------------------------*- C++ -*----------------------------------*\
  =========                 |
  \\      /  F ield         | OpenFOAM: The Open Source CFD Toolbox
   \\    /   O peration     | Website:  https://openfoam.org
    \\  /    A nd           | Version:  dev
     \\/     M anipulation  |
\*---------------------------------------------------------------------------*/
FoamFile
{
    version     2.0;
    format      ascii;
    class       volScalarField;
    location    "0.4";
    object      T;
}
// * * * * * * * * * * * * * * * * * * * * * * * * * * * * * * * * * * * * * //

dimensions      [0 0 0 0 0 0 0];

internalField   nonuniform List<scalar> 
400
(
-4.45979e-05
0.000127393
0.000855197
0.00179982
0.00222884
0.00186776
0.00109238
0.000418094
6.55553e-05
-3.47583e-05
-3.07243e-05
-1.16189e-05
-2.06383e-06
2.32002e-07
2.73842e-07
9.87797e-08
7.90785e-09
1.16512e-07
-8.29981e-07
6.17028e-06
2.28634e-05
0.000541526
0.00147605
0.0020675
0.00183138
0.00104696
0.000299594
-9.12487e-05
-0.000166769
-0.000106696
-3.9222e-05
-5.19184e-06
3.19035e-06
2.27944e-06
6.37067e-07
2.63098e-08
-8.02999e-08
1.28711e-07
-6.19217e-07
7.35368e-07
9.9478e-05
0.000861625
0.00180953
0.00202558
0.00134484
0.00040355
-0.000188417
-0.00031948
-0.000208166
-7.48098e-05
-4.84108e-06
1.1708e-05
7.60569e-06
2.10782e-06
-1.66913e-07
-4.01735e-07
-1.6797e-07
-1.6478e-07
1.86081e-06
-1.71284e-05
7.10726e-05
0.000646413
0.00113806
0.000929469
0.000234518
-0.000315313
-0.000434991
-0.000277081
-9.09356e-05
6.43658e-06
2.5513e-05
1.43482e-05
3.27189e-06
-1.24331e-06
-1.84534e-06
-1.08317e-06
2.63449e-08
-6.43601e-07
8.65413e-06
-4.49193e-05
-0.000368347
-0.000435981
-0.000257186
-0.000280831
-0.000424773
-0.00041242
-0.000237102
-5.91625e-05
2.46581e-05
3.00585e-05
1.56987e-05
1.08086e-05
1.38061e-05
1.2854e-05
5.17077e-06
-2.39532e-06
-3.63366e-06
-4.3517e-06
1.91783e-05
-5.86094e-05
-0.00144138
-0.00187795
-0.00118954
-0.000575353
-0.000271055
-9.79738e-05
9.69945e-06
4.70248e-05
3.01078e-05
1.46805e-05
6.23112e-05
0.000153108
0.000227339
0.000224286
0.000142513
4.16704e-05
-1.86363e-05
-3.67055e-05
1.06857e-05
-3.84983e-05
-0.00295694
-0.00255519
-0.000932635
-0.000135312
5.13217e-05
6.14271e-05
5.00453e-05
4.96642e-05
7.28216e-05
0.000211754
0.000617836
0.00122356
0.00175465
0.00185391
0.00142704
0.000753652
0.000209219
-5.91349e-05
-5.17634e-05
-1.88088e-05
-0.00429777
-0.00187787
-0.000138214
0.000143278
7.11385e-05
1.52832e-05
1.61484e-05
0.000116674
0.000452536
0.00137714
0.00341687
0.00650706
0.00947503
0.0105546
0.00899919
0.00580922
0.00272721
0.000791506
8.35114e-05
-8.32686e-06
-0.00487068
-0.000487263
0.00018526
5.94857e-05
-9.35535e-06
-5.63532e-05
-7.2009e-05
0.000249893
0.00169658
0.00560209
0.0136341
0.0259426
0.0382033
0.0435686
0.0387545
0.0269801
0.0145869
0.00591919
0.00172515
0.000300698
-0.00454706
0.000494457
2.05171e-05
1.08867e-06
-5.12752e-05
-0.000251569
-0.000462249
0.000319667
0.00474888
0.0170718
0.0415956
0.0786626
0.116183
0.133888
0.120961
0.0862738
0.0486735
0.0214775
0.00723764
0.00167331
-0.00364705
0.000624732
-6.12719e-05
2.24765e-05
-0.000176665
-0.0007547
-0.00140937
0.000324987
0.0111158
0.0415302
0.101096
0.187851
0.273592
0.313366
0.282632
0.201719
0.114455
0.0514536
0.0180567
0.00440168
-0.00273711
0.000437646
-9.8431e-06
-2.20641e-06
-0.000415874
-0.00156144
-0.00275011
0.000962029
0.0227215
0.0830432
0.197644
0.355456
0.503417
0.566242
0.505594
0.358525
0.202337
0.0907776
0.0319958
0.0073792
-0.00191773
0.000299893
1.20671e-05
-4.72984e-05
-0.000683794
-0.00231919
-0.00363868
0.00321939
0.03826
0.131347
0.301956
0.527312
0.728584
0.80471
0.710057
0.499205
0.279301
0.124116
0.0428386
0.00870433
-0.00109375
0.000152846
2.68548e-05
-8.61503e-05
-0.000810896
-0.00255213
-0.00346665
0.00607323
0.0496135
0.161058
0.360178
0.61661
0.838111
0.913705
0.798584
0.55711
0.308866
0.135063
0.0442958
0.00730897
-0.000405101
4.58352e-05
2.82609e-05
-7.81577e-05
-0.000683644
-0.00210117
-0.00250451
0.00711376
0.0484738
0.152577
0.337058
0.572732
0.773365
0.838216
0.72894
0.505745
0.277508
0.117939
0.0352468
0.00408546
1.28337e-05
-1.17824e-05
2.63634e-05
-2.35152e-05
-0.000379563
-0.00129323
-0.00154995
0.0052198
0.0348428
0.110593
0.246786
0.4228
0.57387
0.623815
0.542877
0.375308
0.202721
0.0818351
0.020864
0.00102516
0.000148438
-2.58472e-05
2.29693e-05
3.45292e-05
-8.72573e-05
-0.000574883
-0.00101065
0.00184707
0.0170014
0.058858
0.137976
0.244222
0.338846
0.373727
0.327611
0.225579
0.118373
0.0435741
0.00823639
-0.000563934
0.000115317
-1.80754e-05
1.57937e-05
5.74957e-05
7.24696e-05
-0.000144913
-0.000728553
-0.000722688
0.00365835
0.0196051
0.0539369
0.104256
0.152734
0.174265
0.155208
0.105955
0.0525669
0.0161805
0.00117634
-0.000772519
4.42614e-05
-7.48555e-06
5.99317e-06
4.37603e-05
0.000105652
5.42956e-05
-0.000440027
-0.00155526
-0.00230856
0.000319686
0.0101404
0.0278557
0.047696
0.0589334
0.0541202
0.0360959
0.0158067
0.00290288
-0.000958775
-0.000423819
9.05773e-07
-1.69706e-06
-4.10409e-07
1.84141e-05
7.40947e-05
0.000128024
-8.18113e-05
-0.00120071
-0.00404462
-0.00868681
-0.0133746
-0.0149397
-0.011662
-0.00567865
-0.00137969
-0.000917166
-0.00224142
-0.00233282
-0.000998253
-4.09451e-05
)
;

boundaryField
{
    fixedWalls
    {
        type            zeroGradient;
    }
    left
    {
        type            cyclic;
    }
    right
    {
        type            cyclic;
    }
    frontAndBack
    {
        type            empty;
    }
}


// ************************************************************************* //
