/*--------------------------------*- C++ -*----------------------------------*\
  =========                 |
  \\      /  F ield         | OpenFOAM: The Open Source CFD Toolbox
   \\    /   O peration     | Website:  https://openfoam.org
    \\  /    A nd           | Version:  dev
     \\/     M anipulation  |
\*---------------------------------------------------------------------------*/
FoamFile
{
    version     2.0;
    format      ascii;
    class       volScalarField;
    location    "0.4";
    object      T_analytic;
}
// * * * * * * * * * * * * * * * * * * * * * * * * * * * * * * * * * * * * * //

dimensions      [0 0 0 0 0 0 0];

internalField   nonuniform List<scalar> 
400
(
1.26546e-14
3.79687e-13
8.87215e-12
1.61458e-10
2.28831e-09
2.52579e-08
2.17124e-07
1.45359e-06
7.57887e-06
3.07746e-05
9.73212e-05
0.000239689
0.000459744
0.000686767
0.000798968
0.000723896
0.000510798
0.000280704
0.000120136
4.0043e-05
7.37918e-14
2.21404e-12
5.17355e-11
9.41496e-10
1.33437e-08
1.47285e-07
1.2661e-06
8.47622e-06
4.41941e-05
0.000179454
0.000567502
0.00139768
0.00268087
0.00400469
0.00465896
0.0042212
0.00297858
0.00163685
0.000700541
0.000233499
3.35115e-13
1.00547e-11
2.3495e-10
4.27568e-09
6.05984e-08
6.68873e-07
5.7498e-06
3.84936e-05
0.000200701
0.000814964
0.00257723
0.00634738
0.0121748
0.0181868
0.021158
0.01917
0.0135268
0.00743352
0.00318141
0.00106041
1.18524e-12
3.55618e-11
8.30974e-10
1.51223e-08
2.14325e-07
2.36568e-06
2.0336e-05
0.000136145
0.000709844
0.00288238
0.00911519
0.0224495
0.04306
0.0643233
0.0748321
0.0678008
0.0478418
0.026291
0.0112521
0.00375046
3.26472e-12
9.79541e-11
2.2889e-09
4.1654e-08
5.90354e-07
6.51621e-06
5.6015e-05
0.000375008
0.00195525
0.00793944
0.0251076
0.0618366
0.118608
0.177177
0.206123
0.186756
0.131779
0.0724179
0.0309936
0.0103306
7.00343e-12
2.1013e-10
4.91011e-09
8.93556e-08
1.26642e-06
1.39785e-05
0.000120163
0.000804462
0.00419437
0.0170316
0.0538605
0.132651
0.254436
0.380078
0.442173
0.400626
0.282691
0.15535
0.066487
0.022161
1.17004e-11
3.51059e-10
8.2032e-09
1.49284e-07
2.11578e-06
2.33535e-05
0.000200753
0.00134399
0.00700743
0.0284542
0.0899833
0.221617
0.425079
0.634986
0.738727
0.669315
0.472284
0.259539
0.111078
0.0370238
1.52237e-11
4.5677e-10
1.06734e-08
1.94237e-07
2.75288e-06
3.03858e-05
0.000261204
0.0017487
0.00911752
0.0370224
0.117079
0.288351
0.55308
0.826194
0.961174
0.870861
0.6145
0.337692
0.144526
0.0481724
1.54264e-11
4.62852e-10
1.08155e-08
1.96823e-07
2.78954e-06
3.07904e-05
0.000264682
0.00177198
0.00923892
0.0375154
0.118638
0.29219
0.560445
0.837195
0.973972
0.882456
0.622682
0.342188
0.146451
0.0488138
1.21741e-11
3.65269e-10
8.53526e-09
1.55327e-07
2.20142e-06
2.42988e-05
0.000208879
0.0013984
0.00729109
0.029606
0.0936257
0.230588
0.442286
0.660689
0.76863
0.696408
0.491402
0.270045
0.115574
0.0385224
7.48226e-12
2.24497e-10
5.24583e-09
9.54649e-08
1.35301e-06
1.49342e-05
0.000128378
0.000859464
0.00448115
0.0181961
0.057543
0.141721
0.271832
0.406064
0.472405
0.428017
0.302019
0.165971
0.0710328
0.0236761
3.58143e-12
1.07457e-10
2.51095e-09
4.56949e-08
6.47625e-07
7.14836e-06
6.14491e-05
0.000411387
0.00214493
0.00870966
0.0275433
0.0678355
0.130114
0.194365
0.22612
0.204873
0.144563
0.0794432
0.0340003
0.0113327
1.33508e-12
4.00575e-11
9.36025e-10
1.7034e-08
2.4142e-07
2.66475e-06
2.29069e-05
0.000153356
0.000799582
0.00324677
0.0102675
0.0252876
0.0485036
0.0724549
0.0842923
0.0763721
0.0538899
0.0296147
0.0126745
0.00422459
3.87599e-13
1.16295e-11
2.71746e-10
4.94531e-09
7.0089e-08
7.73629e-07
6.65031e-06
4.45223e-05
0.000232134
0.0009426
0.00298086
0.00734147
0.0140816
0.0210351
0.0244717
0.0221723
0.0156453
0.00859772
0.00367967
0.00122648
8.76366e-14
2.62944e-12
6.14422e-11
1.11814e-09
1.58472e-08
1.74918e-07
1.50364e-06
1.00665e-05
5.24858e-05
0.000213123
0.000673977
0.00165992
0.00318385
0.00475606
0.00553308
0.00501318
0.00353742
0.00194395
0.000831978
0.000277309
1.54317e-14
4.63012e-13
1.08192e-11
1.96891e-10
2.7905e-09
3.0801e-08
2.64773e-07
1.77259e-06
9.24211e-06
3.75283e-05
0.000118679
0.000292291
0.000560638
0.000837483
0.000974308
0.00088276
0.000622896
0.000342306
0.000146501
4.88307e-05
2.11627e-15
6.34962e-14
1.48372e-12
2.70011e-11
3.82681e-10
4.22396e-09
3.63102e-08
2.43089e-07
1.26744e-06
5.14653e-06
1.62753e-05
4.00839e-05
7.68843e-05
0.00011485
0.000133614
0.000121059
8.54223e-05
4.6943e-05
2.00908e-05
6.69651e-06
2.26023e-16
6.78155e-15
1.58465e-13
2.88378e-12
4.08714e-11
4.5113e-10
3.87803e-09
2.59625e-08
1.35366e-07
5.49663e-07
1.73825e-06
4.28107e-06
8.21145e-06
1.22663e-05
1.42703e-05
1.29295e-05
9.12332e-06
5.01363e-06
2.14574e-06
7.15204e-07
1.88001e-17
5.64076e-16
1.31808e-14
2.39867e-13
3.3996e-12
3.75241e-11
3.22567e-10
2.15951e-09
1.12594e-08
4.57199e-08
1.44584e-07
3.56091e-07
6.83011e-07
1.02029e-06
1.18698e-06
1.07545e-06
7.58859e-07
4.17024e-07
1.78479e-07
5.94892e-08
1.21785e-18
3.65403e-17
8.53838e-16
1.55384e-14
2.20223e-13
2.43078e-12
2.08956e-11
1.39891e-10
7.29376e-10
2.96169e-09
9.366e-09
2.30672e-08
4.42448e-08
6.60931e-08
7.68912e-08
6.96663e-08
4.91582e-08
2.70144e-08
1.15617e-08
3.85366e-09
)
;

boundaryField
{
    fixedWalls
    {
        type            zeroGradient;
    }
    left
    {
        type            cyclic;
    }
    right
    {
        type            cyclic;
    }
    frontAndBack
    {
        type            empty;
    }
}


// ************************************************************************* //
