/*--------------------------------*- C++ -*----------------------------------*\
  =========                 |
  \\      /  F ield         | OpenFOAM: The Open Source CFD Toolbox
   \\    /   O peration     | Website:  https://openfoam.org
    \\  /    A nd           | Version:  dev
     \\/     M anipulation  |
\*---------------------------------------------------------------------------*/
FoamFile
{
    version     2.0;
    format      ascii;
    class       surfaceScalarField;
    location    "0.4";
    object      T_analyticf_analytic;
}
// * * * * * * * * * * * * * * * * * * * * * * * * * * * * * * * * * * * * * //

dimensions      [0 0 0 0 0 0 0];

internalField   nonuniform List<scalar> 
760
(
7.15168e-14
3.15282e-14
1.89365e-12
9.45969e-13
3.90495e-11
2.21045e-11
6.27132e-10
4.02263e-10
7.84383e-09
5.70121e-09
7.64054e-08
6.29288e-08
5.79624e-07
5.40952e-07
3.42448e-06
3.62155e-06
1.57569e-05
1.88823e-05
5.6464e-05
7.66733e-05
0.000157579
0.00024247
0.000342495
0.000597173
0.000579741
0.00114543
0.00076426
0.00171104
0.000784648
0.00199059
0.000627385
0.00180355
0.000390679
0.00127263
0.000189467
0.000699359
7.15602e-05
0.000299313
9.97649e-05
4.17031e-13
1.62245e-13
1.10423e-11
4.86799e-12
2.27706e-10
1.13751e-10
3.65695e-09
2.07006e-09
4.57391e-08
2.93386e-08
4.45537e-07
3.23834e-07
3.37992e-06
2.78376e-06
1.99689e-05
1.86366e-05
9.18819e-05
9.71693e-05
0.000329254
0.000394564
0.000918881
0.00124776
0.00199716
0.00307307
0.0033806
0.00589441
0.00445657
0.0088051
0.00457546
0.0102436
0.00365842
0.00928113
0.00227814
0.00654898
0.00110482
0.00359893
0.000417284
0.00154028
0.000513394
1.89389e-12
6.50237e-13
5.0147e-11
1.95096e-11
1.0341e-09
4.55882e-10
1.66075e-08
8.29627e-09
2.07718e-07
1.17582e-07
2.02335e-06
1.29784e-06
1.53494e-05
1.11566e-05
9.06862e-05
7.46907e-05
0.000417269
0.000389429
0.00149526
0.00158131
0.00417297
0.0050007
0.00906984
0.0123161
0.0153525
0.0236232
0.0202389
0.0352885
0.0207788
0.0410538
0.0166142
0.0371963
0.0103459
0.0262466
0.0050174
0.0144236
0.00189504
0.00617302
0.00205755
6.69833e-12
2.02954e-12
1.77361e-10
6.08941e-11
3.65741e-09
1.42291e-09
5.87377e-08
2.58946e-08
7.34661e-07
3.66999e-07
7.1562e-06
4.05086e-06
5.42881e-05
3.48222e-05
0.00032074
0.000233127
0.0014758
0.0012155
0.00528847
0.00493563
0.014759
0.0156083
0.0320784
0.0384413
0.0542991
0.0737336
0.0715813
0.110144
0.0734908
0.128138
0.0587615
0.116098
0.0365914
0.0819217
0.0177456
0.0450192
0.0067024
0.0192674
0.00642208
1.84504e-11
4.93344e-12
4.88536e-10
1.48022e-10
1.00743e-08
3.45884e-09
1.61792e-07
6.29449e-08
2.0236e-06
8.92107e-07
1.97116e-05
9.8469e-06
0.000149535
8.46465e-05
0.000883472
0.000566688
0.00406507
0.00295465
0.014567
0.0119976
0.0406534
0.037941
0.0883591
0.0934437
0.149566
0.179233
0.197169
0.267739
0.202429
0.311481
0.161857
0.282214
0.10079
0.199136
0.0488799
0.109433
0.0184616
0.0468356
0.0156109
3.95796e-11
9.3396e-12
1.048e-09
2.80224e-10
2.16112e-08
6.54801e-09
3.47073e-07
1.19162e-07
4.34101e-06
1.68887e-06
4.22851e-05
1.86414e-05
0.000320781
0.000160246
0.00189521
0.00107281
0.00872033
0.00559351
0.0312489
0.0227129
0.0872092
0.071827
0.189547
0.1769
0.320846
0.339309
0.422965
0.506862
0.434248
0.589671
0.347214
0.534265
0.216214
0.37699
0.104857
0.207171
0.0396036
0.0886654
0.0295533
6.61246e-11
1.377e-11
1.75087e-09
4.13153e-10
3.61052e-08
9.65415e-09
5.79847e-07
1.75689e-07
7.25242e-06
2.49001e-06
7.06445e-05
2.74842e-05
0.000535921
0.000236261
0.00316628
0.00158171
0.0145688
0.00824688
0.0522067
0.0334871
0.145698
0.105899
0.316671
0.260816
0.53603
0.500266
0.706636
0.747299
0.725486
0.86939
0.580081
0.787701
0.361223
0.55582
0.175181
0.305445
0.0661647
0.130725
0.0435724
8.60361e-11
1.58112e-11
2.27809e-09
4.74397e-10
4.69773e-08
1.10852e-08
7.54451e-07
2.01732e-07
9.43628e-06
2.85911e-06
9.19172e-05
3.15584e-05
0.000697299
0.000271284
0.00411972
0.00181618
0.0189558
0.00946936
0.0679273
0.0384511
0.189571
0.121597
0.412027
0.299478
0.69744
0.574423
0.91942
0.858076
0.943946
0.998265
0.754756
0.904467
0.469995
0.638213
0.227932
0.350723
0.0860883
0.150103
0.0500314
8.71817e-11
1.41391e-11
2.30842e-09
4.24228e-10
4.76028e-08
9.91295e-09
7.64497e-07
1.80398e-07
9.56192e-06
2.55676e-06
9.3141e-05
2.8221e-05
0.000706583
0.000242595
0.00417457
0.00162411
0.0192082
0.00846795
0.0688317
0.0343848
0.192095
0.108738
0.417514
0.267807
0.706726
0.513677
0.931662
0.767332
0.956514
0.892696
0.764806
0.808817
0.476253
0.57072
0.230967
0.313633
0.0872346
0.13423
0.0447404
6.88012e-11
9.84705e-12
1.82174e-09
2.9545e-10
3.75667e-08
6.90378e-09
6.03318e-07
1.25637e-07
7.54599e-06
1.78063e-06
7.35042e-05
1.96542e-05
0.000557615
0.000168953
0.00329445
0.0011311
0.0151586
0.00589743
0.05432
0.023947
0.151596
0.0757295
0.329489
0.186512
0.557727
0.357745
0.73524
0.534401
0.754853
0.62171
0.603562
0.563293
0.375844
0.397473
0.182272
0.218427
0.068843
0.0934829
0.031159
4.22857e-11
5.34093e-12
1.11965e-09
1.60248e-10
2.30888e-08
3.74453e-09
3.70803e-07
6.81439e-08
4.63781e-06
9.65792e-07
4.51761e-05
1.06602e-05
0.000342714
9.1638e-05
0.00202479
0.000613495
0.00931655
0.0031987
0.0333854
0.0129886
0.0931718
0.0410748
0.202506
0.101162
0.342783
0.194037
0.451883
0.289853
0.463938
0.337208
0.370953
0.305523
0.230996
0.215584
0.112026
0.118472
0.0423113
0.050704
0.0169003
2.02403e-11
2.25607e-12
5.35929e-10
6.76909e-11
1.10516e-08
1.58174e-09
1.77487e-07
2.87849e-08
2.21992e-06
4.07963e-07
2.16238e-05
4.50301e-06
0.000164042
3.8709e-05
0.000969178
0.000259148
0.00445942
0.00135117
0.0159801
0.00548653
0.0445972
0.0173505
0.0969309
0.042732
0.164075
0.0819636
0.216297
0.122438
0.222067
0.142441
0.177559
0.129057
0.110568
0.0910656
0.0536218
0.0500442
0.0202526
0.021418
0.0071389
7.54513e-12
7.42192e-13
1.99782e-10
2.22686e-11
4.11978e-09
5.20352e-10
6.61633e-08
9.4695e-09
8.27536e-07
1.3421e-07
8.06088e-06
1.48138e-06
6.11512e-05
1.27343e-05
0.000361288
8.52532e-05
0.00166237
0.000444501
0.00595704
0.00180493
0.0166249
0.00570789
0.0361337
0.0140578
0.0611636
0.026964
0.0806306
0.0402789
0.0827815
0.0468595
0.0661901
0.0424565
0.0412172
0.0299583
0.019989
0.0164633
0.00754971
0.007046
0.00234852
2.1905e-12
1.90154e-13
5.80007e-11
5.70536e-12
1.19605e-09
1.33317e-10
1.92085e-08
2.42614e-09
2.4025e-07
3.43853e-08
2.34023e-06
3.79538e-07
1.77534e-05
3.26261e-06
0.000104889
2.18424e-05
0.00048262
0.000113884
0.00172944
0.000462435
0.00482652
0.0014624
0.0104903
0.00360169
0.017757
0.00690834
0.0234086
0.0103197
0.0240331
0.0120057
0.0192163
0.0108776
0.0119662
0.00767551
0.0058032
0.004218
0.00219183
0.00180523
0.000601706
4.95274e-13
3.79421e-14
1.3114e-11
1.13841e-12
2.70429e-10
2.66013e-11
4.34306e-09
4.84097e-10
5.43208e-08
6.86103e-09
5.29129e-07
7.57307e-08
4.01406e-06
6.51e-07
2.37155e-05
4.35829e-06
0.000109121
2.27237e-05
0.000391029
9.22713e-05
0.00109128
0.000291797
0.00237187
0.000718658
0.00401487
0.00137845
0.00529272
0.00205913
0.00543391
0.00239554
0.00434482
0.00217045
0.00270557
0.00153152
0.00131211
0.000841632
0.000495575
0.000360203
0.00012006
8.72118e-14
5.89609e-15
2.30922e-12
1.76906e-13
4.76192e-11
4.13376e-12
7.6476e-10
7.52272e-11
9.56522e-09
1.06618e-09
9.31732e-08
1.17683e-08
7.06827e-07
1.01163e-07
4.17601e-06
6.77265e-07
1.92148e-05
3.53119e-06
6.88555e-05
1.43387e-05
0.000192161
4.53444e-05
0.000417658
0.000111677
0.00070697
0.000214206
0.000931983
0.000319982
0.000956844
0.000372259
0.00076507
0.000337281
0.000476417
0.000237994
0.000231047
0.000130787
8.72647e-05
5.59745e-05
1.8657e-05
1.196e-14
7.13564e-16
3.1668e-13
2.14097e-14
6.53037e-12
5.00281e-13
1.04877e-10
9.10424e-12
1.31175e-09
1.29033e-10
1.27775e-08
1.42424e-09
9.69323e-08
1.22431e-08
5.72687e-07
8.19648e-08
2.63507e-06
4.27355e-07
9.44265e-06
1.73531e-06
2.63525e-05
5.48772e-06
5.72764e-05
1.35155e-05
9.69519e-05
2.59239e-05
0.00012781
3.87253e-05
0.000131219
4.5052e-05
0.00010492
4.08189e-05
6.53345e-05
2.88027e-05
3.16851e-05
1.58283e-05
1.19672e-05
6.77421e-06
2.25793e-06
1.27736e-15
6.72555e-17
3.38223e-14
2.01793e-15
6.9746e-13
4.71529e-14
1.12012e-11
8.58102e-13
1.40098e-10
1.21617e-11
1.36467e-09
1.34239e-10
1.03526e-08
1.15395e-09
6.11645e-08
7.72542e-09
2.81433e-07
4.02795e-08
1.0085e-06
1.63558e-07
2.81451e-06
5.17234e-07
6.11727e-06
1.27388e-06
1.03547e-05
2.44341e-06
1.36504e-05
3.64997e-06
1.40145e-05
4.24629e-06
1.12057e-05
3.8473e-06
6.9779e-06
2.71474e-06
3.38405e-06
1.49186e-06
1.27813e-06
6.3849e-07
2.12817e-07
1.06248e-16
4.93684e-18
2.81327e-15
1.48124e-16
5.80133e-14
3.46123e-15
9.31689e-13
6.29883e-14
1.16531e-11
8.92722e-13
1.13511e-10
9.8537e-12
8.6111e-10
8.47049e-11
5.08754e-09
5.67079e-10
2.3409e-08
2.95669e-09
8.38849e-08
1.20059e-08
2.34106e-07
3.79672e-08
5.08822e-07
9.35082e-08
8.61284e-07
1.79356e-07
1.13541e-06
2.67923e-07
1.1657e-06
3.11696e-07
9.32066e-07
2.82408e-07
5.80407e-07
1.99274e-07
2.81478e-07
1.09509e-07
1.06312e-07
4.68679e-08
1.56217e-08
6.88264e-18
1.82241e-16
3.75805e-15
6.03539e-14
7.54875e-13
7.35311e-12
5.57819e-11
3.29566e-10
1.51641e-09
5.43399e-09
1.51651e-08
3.2961e-08
5.57932e-08
7.35509e-08
7.5513e-08
6.03783e-08
3.75982e-08
1.82339e-08
6.88682e-09
)
;

boundaryField
{
    fixedWalls
    {
        type            calculated;
        value           nonuniform List<scalar> 
40
(
0
0
0
0
0
0
0
0
0
0
0
0
0
0
0
0
0
0
0
0
2
2
2
2
0
0
0
0
0
0
0
0
0
0
0
0
0
0
0
0
)
;
    }
    left
    {
        type            cyclic;
        value           nonuniform List<scalar> 
20
(
1
1
1
1
0
0
0
0
0
0
0
0
0
0
0
0
0
0
0
0
)
;
    }
    right
    {
        type            cyclic;
        value           nonuniform List<scalar> 
20
(
1
1
1
1
0
0
0
0
0
0
0
0
0
0
0
0
0
0
0
0
)
;
    }
    frontAndBack
    {
        type            empty;
        value           nonuniform 0();
    }
}


// ************************************************************************* //
