/*--------------------------------*- C++ -*----------------------------------*\
  =========                 |
  \\      /  F ield         | OpenFOAM: The Open Source CFD Toolbox
   \\    /   O peration     | Website:  https://openfoam.org
    \\  /    A nd           | Version:  dev
     \\/     M anipulation  |
\*---------------------------------------------------------------------------*/
FoamFile
{
    version     2.0;
    format      ascii;
    class       volScalarField;
    location    "0.2";
    object      T;
}
// * * * * * * * * * * * * * * * * * * * * * * * * * * * * * * * * * * * * * //

dimensions      [0 0 0 0 0 0 0];

internalField   nonuniform List<scalar> 
400
(
-4.17968e-05
-7.85421e-05
-4.2636e-05
5.90467e-06
2.01941e-05
1.22346e-05
3.38898e-06
-1.63862e-07
-5.78008e-07
-2.71353e-07
-7.95711e-08
-2.35586e-08
-7.45823e-09
-3.7699e-09
-7.29874e-09
-2.34459e-09
8.99498e-09
8.36866e-08
-5.19148e-07
5.17532e-06
4.20706e-05
0.00023179
0.000304177
0.000178705
3.70339e-05
-1.68691e-05
-1.44871e-05
-3.88028e-06
1.83726e-07
2.55973e-07
-1.2829e-07
-2.09666e-08
2.83627e-07
3.53536e-07
1.19756e-07
-1.55174e-07
-2.49004e-07
-4.08792e-08
-6.77577e-07
2.18116e-06
0.000356287
0.000907624
0.000771728
0.000253529
-4.79918e-05
-7.63871e-05
-2.66953e-05
-1.09008e-07
2.86989e-06
-2.2409e-08
-1.77591e-07
2.79902e-06
6.45145e-06
7.75985e-06
5.60737e-06
1.74491e-06
-1.14593e-06
-1.86079e-06
-4.99385e-07
-2.16138e-05
0.00116806
0.00200342
0.0011264
7.04676e-05
-0.000235353
-0.000124945
-1.54333e-05
1.08121e-05
4.35765e-06
-6.49807e-07
1.06335e-05
3.86148e-05
7.32433e-05
9.42464e-05
8.63794e-05
5.47676e-05
1.99682e-05
-1.91386e-06
-5.19416e-07
-0.000101672
0.00249821
0.00287567
0.00084394
-0.000380392
-0.000370227
-9.27142e-05
1.78576e-05
1.72768e-05
4.6264e-06
2.1286e-05
0.000114089
0.000310089
0.000578049
0.00079563
0.000828001
0.000653571
0.000384227
0.000155414
5.4904e-05
-0.000254699
0.00378763
0.00255559
-9.23948e-05
-0.000700155
-0.000282886
-2.2076e-06
3.54138e-05
1.48273e-05
3.48783e-05
0.000192284
0.000705839
0.00179533
0.00339102
0.00487978
0.00543108
0.00471521
0.0031967
0.00166999
0.000696743
-0.000282116
0.00393572
0.000847868
-0.000866777
-0.000534049
-6.76516e-05
4.32509e-05
2.48256e-05
3.67684e-05
0.000210666
0.000950235
0.00315167
0.00789143
0.0150686
0.0221972
0.0255202
0.0231028
0.0165372
0.00932518
0.00414424
0.000711587
0.0020787
-0.000954592
-0.000747318
-0.000131165
3.54682e-05
2.24017e-05
2.50321e-05
0.000149824
0.000800089
0.00333803
0.0107326
0.0267091
0.0511818
0.0761047
0.0886345
0.0814701
0.0593459
0.0341935
0.0154495
0.00465892
-0.00140542
-0.00124871
-0.000151659
3.80514e-05
1.18156e-05
1.81262e-06
5.01903e-05
0.000400773
0.00216828
0.0088901
0.0282945
0.0699964
0.133995
0.199581
0.232918
0.214334
0.156114
0.0898785
0.0404785
0.0135213
-0.00475685
-0.000166605
6.2106e-05
4.04768e-06
-5.84669e-06
-1.38723e-05
3.42724e-05
0.000671055
0.00428644
0.0182332
0.057972
0.142507
0.27241
0.405786
0.472651
0.432372
0.311754
0.177176
0.078647
0.0269663
-0.0061008
0.00054652
-3.32743e-05
1.45608e-06
-8.89587e-06
-6.56231e-05
-0.000137937
0.000562279
0.00606553
0.0288046
0.0938153
0.229956
0.436581
0.64653
0.74868
0.679343
0.484072
0.270994
0.11871
0.0400042
-0.00551875
0.000459369
-3.01194e-05
6.41536e-06
-1.53754e-05
-0.000143158
-0.000446191
-1.30215e-05
0.00656908
0.0361298
0.121155
0.2957
0.554575
0.812486
0.933762
0.842043
0.595554
0.330192
0.143224
0.0450049
-0.0041665
0.00038157
-2.76822e-05
9.14478e-06
-1.90675e-05
-0.000194772
-0.000652031
-0.00048629
0.00600357
0.0363355
0.123413
0.29993
0.557377
0.810016
0.926318
0.833204
0.587991
0.324765
0.138865
0.0389691
-0.00247808
0.000218994
-1.50144e-05
8.34945e-06
-1.95874e-05
-0.000189279
-0.000630057
-0.000603076
0.0045456
0.0288922
0.098535
0.238964
0.4425
0.641604
0.733874
0.661756
0.46854
0.258737
0.107727
0.025878
-0.00110286
9.12902e-05
-4.85733e-06
4.80898e-06
-1.62365e-05
-0.000133768
-0.000425523
-0.000413382
0.00280331
0.017893
0.0609752
0.148093
0.275041
0.400747
0.461627
0.420014
0.30004
0.165666
0.0659154
0.0127908
-0.000312908
2.11609e-05
-4.49903e-08
1.29658e-06
-1.06102e-05
-6.74599e-05
-0.000194947
-0.000155324
0.00138755
0.00839502
0.0283828
0.0692784
0.130039
0.192156
0.225041
0.208442
0.151143
0.0831294
0.0307596
0.00428015
-1.43663e-05
-2.43108e-06
8.66025e-07
-4.67255e-07
-5.36738e-06
-2.21103e-05
-4.86701e-05
2.62566e-06
0.000544488
0.00278021
0.00909472
0.0223226
0.0428563
0.0652989
0.0791513
0.075853
0.0563554
0.0306311
0.0100257
0.000614392
3.47088e-05
-4.32914e-06
4.56898e-07
-6.92485e-07
-2.05433e-06
-2.83364e-06
5.22911e-06
4.48257e-05
0.000167711
0.00049657
0.00131816
0.00315698
0.00652292
0.0110774
0.0150249
0.0158799
0.01253
0.0066129
0.00157239
-0.000240648
1.59985e-05
-1.55856e-06
8.349e-08
-3.61737e-07
-5.68513e-07
1.27206e-06
1.0608e-05
3.12971e-05
4.03662e-05
-5.88192e-05
-0.000450217
-0.00126096
-0.00226201
-0.00285545
-0.00254354
-0.00154562
-0.000679431
-0.000427592
-0.000411096
-0.000172763
6.15256e-07
-6.17527e-08
-2.17743e-08
-1.16097e-07
-1.24596e-07
8.44562e-07
5.14115e-06
1.37065e-05
9.87406e-06
-8.02704e-05
-0.000431198
-0.00126662
-0.00261368
-0.00406798
-0.00488063
-0.00451858
-0.00317087
-0.00158756
-0.000457458
-1.08059e-05
)
;

boundaryField
{
    fixedWalls
    {
        type            zeroGradient;
    }
    left
    {
        type            cyclic;
    }
    right
    {
        type            cyclic;
    }
    frontAndBack
    {
        type            empty;
    }
}


// ************************************************************************* //
