/*--------------------------------*- C++ -*----------------------------------*\
  =========                 |
  \\      /  F ield         | OpenFOAM: The Open Source CFD Toolbox
   \\    /   O peration     | Website:  https://openfoam.org
    \\  /    A nd           | Version:  dev
     \\/     M anipulation  |
\*---------------------------------------------------------------------------*/
FoamFile
{
    version     2.0;
    format      ascii;
    class       volScalarField;
    location    "0.2";
    object      T_analytic;
}
// * * * * * * * * * * * * * * * * * * * * * * * * * * * * * * * * * * * * * //

dimensions      [0 0 0 0 0 0 0];

internalField   nonuniform List<scalar> 
400
(
6.51931e-16
2.10577e-14
5.29721e-13
1.03779e-11
1.58343e-10
1.88154e-09
1.74122e-08
1.25494e-07
7.04395e-07
3.07919e-06
1.0483e-05
2.77944e-05
5.73927e-05
9.22959e-05
0.000115594
0.000112749
8.56483e-05
5.06699e-05
2.33458e-05
8.37708e-06
4.82518e-15
1.55856e-13
3.92065e-12
7.68105e-11
1.17195e-09
1.39259e-08
1.28874e-07
9.28824e-07
5.21348e-06
2.27902e-05
7.75881e-05
0.000205716
0.000424784
0.000683115
0.000855552
0.000834498
0.000633914
0.000375026
0.00017279
6.20018e-05
2.78132e-14
8.98381e-13
2.25994e-11
4.4275e-10
6.75534e-09
8.02716e-08
7.42854e-07
5.35391e-06
3.00514e-05
0.000131367
0.000447232
0.00118579
0.00244853
0.0039376
0.00493156
0.0048102
0.003654
0.00216172
0.000995996
0.000357389
1.24858e-13
4.03297e-12
1.01452e-10
1.98757e-09
3.03257e-08
3.60351e-07
3.33478e-06
2.40345e-05
0.000134905
0.000589726
0.00200769
0.00532317
0.0109918
0.0176765
0.0221385
0.0215937
0.0164033
0.00970429
0.00447117
0.00160437
4.36521e-13
1.40999e-11
3.54692e-10
6.94885e-09
1.06023e-07
1.25984e-06
1.16589e-05
8.40283e-05
0.00047165
0.00206177
0.0070192
0.0186106
0.0384291
0.0617997
0.0773996
0.0754949
0.0573486
0.0339277
0.0156319
0.00560914
1.18856e-12
3.83912e-11
9.65757e-10
1.89204e-08
2.88681e-07
3.43031e-06
3.1745e-05
0.000228793
0.00128421
0.0056138
0.0191119
0.0506731
0.104635
0.168269
0.210744
0.205558
0.156149
0.0923785
0.0425627
0.0152726
2.52038e-12
8.14095e-11
2.04791e-09
4.01211e-08
6.12156e-07
7.27406e-06
6.7316e-05
0.000485161
0.0027232
0.0119042
0.0405273
0.107454
0.221881
0.356818
0.446888
0.435891
0.331118
0.195891
0.0902552
0.0323859
4.16232e-12
1.34445e-10
3.38205e-09
6.62587e-08
1.01095e-06
1.20129e-05
0.00011117
0.000801227
0.00449728
0.0196594
0.0669294
0.177456
0.366429
0.589272
0.73802
0.719858
0.54683
0.323507
0.149053
0.0534843
5.35342e-12
1.72918e-10
4.34987e-09
8.52195e-08
1.30025e-06
1.54505e-05
0.000142983
0.00103051
0.00578423
0.0252852
0.0860821
0.228237
0.471288
0.7579
0.949214
0.925855
0.703312
0.416083
0.191707
0.0687895
5.36233e-12
1.73206e-10
4.35711e-09
8.53613e-08
1.30242e-06
1.54762e-05
0.000143221
0.00103222
0.00579386
0.0253273
0.0862254
0.228617
0.472072
0.759162
0.950795
0.927397
0.704483
0.416776
0.192026
0.068904
4.18314e-12
1.35118e-10
3.39897e-09
6.65901e-08
1.01601e-06
1.2073e-05
0.000111726
0.000805235
0.00451977
0.0197577
0.0672642
0.178344
0.368262
0.59222
0.741712
0.72346
0.549565
0.325125
0.149799
0.0537518
2.54143e-12
8.20894e-11
2.06501e-09
4.04562e-08
6.17268e-07
7.33481e-06
6.78782e-05
0.000489213
0.00274595
0.0120036
0.0408657
0.108351
0.223734
0.359798
0.45062
0.439531
0.333883
0.197527
0.0910089
0.0326564
1.20248e-12
3.88408e-11
9.77067e-10
1.9142e-08
2.92062e-07
3.47049e-06
3.21167e-05
0.000231472
0.00129925
0.00567955
0.0193357
0.0512665
0.10586
0.170239
0.213212
0.207965
0.157978
0.0934604
0.0430611
0.0154515
4.43105e-13
1.43125e-11
3.60041e-10
7.05366e-09
1.07623e-07
1.27885e-06
1.18348e-05
8.52957e-05
0.000478764
0.00209287
0.00712506
0.0188913
0.0390087
0.0627318
0.078567
0.0766335
0.0582135
0.0344394
0.0158677
0.00569374
1.27163e-13
4.10743e-12
1.03325e-10
2.02427e-09
3.08857e-08
3.67005e-07
3.39636e-06
2.44783e-05
0.000137396
0.000600615
0.00204476
0.00542146
0.0111948
0.0180029
0.0225473
0.0219924
0.0167062
0.00988348
0.00455373
0.001634
2.84212e-14
9.18018e-13
2.30934e-11
4.52428e-10
6.903e-09
8.20263e-08
7.59092e-07
5.47094e-06
3.07083e-05
0.000134238
0.000457008
0.00121171
0.00250205
0.00402367
0.00503936
0.00491534
0.00373387
0.00220897
0.00101777
0.000365202
4.94708e-15
1.59793e-13
4.01971e-12
7.87511e-11
1.20156e-09
1.42778e-08
1.3213e-07
9.5229e-07
5.34519e-06
2.3366e-05
7.95483e-05
0.000210913
0.000435515
0.000700373
0.000877166
0.00085558
0.000649929
0.000384501
0.000177156
6.35682e-05
6.70629e-16
2.16617e-14
5.44914e-13
1.06755e-11
1.62884e-10
1.9355e-09
1.79116e-08
1.29093e-07
7.24597e-07
3.1675e-06
1.07836e-05
2.85915e-05
5.90387e-05
9.4943e-05
0.000118909
0.000115983
8.81048e-05
5.21232e-05
2.40153e-05
8.61734e-06
7.08014e-17
2.28692e-15
5.75291e-14
1.12707e-12
1.71964e-11
2.0434e-10
1.89101e-09
1.36289e-08
7.64991e-08
3.34408e-07
1.13848e-06
3.01854e-06
6.233e-06
1.00236e-05
1.25538e-05
1.22449e-05
9.30163e-06
5.50289e-06
2.53541e-06
9.09773e-07
5.82141e-18
1.88035e-16
4.73014e-15
9.26693e-14
1.41392e-12
1.68012e-11
1.55482e-10
1.12059e-09
6.28988e-09
2.74956e-08
9.36074e-08
2.48189e-07
5.12487e-07
8.24155e-07
1.03219e-06
1.00679e-06
7.64796e-07
4.52457e-07
2.08466e-07
7.4803e-08
)
;

boundaryField
{
    fixedWalls
    {
        type            zeroGradient;
    }
    left
    {
        type            cyclic;
    }
    right
    {
        type            cyclic;
    }
    frontAndBack
    {
        type            empty;
    }
}


// ************************************************************************* //
