/*--------------------------------*- C++ -*----------------------------------*\
  =========                 |
  \\      /  F ield         | OpenFOAM: The Open Source CFD Toolbox
   \\    /   O peration     | Website:  https://openfoam.org
    \\  /    A nd           | Version:  dev
     \\/     M anipulation  |
\*---------------------------------------------------------------------------*/
FoamFile
{
    version     2.0;
    format      ascii;
    class       surfaceScalarField;
    location    "0.2";
    object      T_analyticf_analytic;
}
// * * * * * * * * * * * * * * * * * * * * * * * * * * * * * * * * * * * * * //

dimensions      [0 0 0 0 0 0 0];

internalField   nonuniform List<scalar> 
760
(
3.82277e-15
1.82991e-15
1.08969e-13
5.9107e-14
2.41908e-12
1.48688e-12
4.1824e-11
2.91298e-11
5.63154e-10
4.44453e-10
5.90548e-09
5.28129e-09
4.82292e-08
4.88744e-08
3.06754e-07
3.52249e-07
1.51949e-06
1.97717e-06
5.86181e-06
8.64299e-06
1.76113e-05
2.94246e-05
4.12077e-05
7.80161e-05
7.50916e-05
0.000161096
0.000106569
0.000259066
0.000117787
0.000324461
0.000101388
0.000316476
6.79683e-05
0.000240407
3.54855e-05
0.000142226
1.44285e-05
6.55293e-05
2.35137e-05
2.82937e-14
1.19524e-14
8.06515e-13
3.86068e-13
1.79045e-11
9.71179e-12
3.09554e-10
1.90266e-10
4.1681e-09
2.90302e-09
4.37086e-08
3.44957e-08
3.56961e-07
3.19232e-07
2.2704e-06
2.30077e-06
1.12463e-05
1.29142e-05
4.33854e-05
5.64532e-05
0.000130348
0.000192192
0.000304993
0.000509576
0.00055578
0.00105222
0.000788754
0.00169213
0.000871781
0.00211927
0.000750411
0.00206712
0.000503058
0.00157026
0.000262641
0.000928971
0.000106791
0.000428016
0.000153584
1.6309e-13
6.08002e-14
4.6489e-12
1.96388e-12
1.03205e-10
4.94026e-11
1.78433e-09
9.67859e-10
2.40257e-08
1.47673e-08
2.51944e-07
1.75475e-07
2.05759e-06
1.62389e-06
1.3087e-05
1.17037e-05
6.48257e-05
6.5693e-05
0.000250081
0.00028717
0.000751348
0.000977657
0.00175803
0.00259215
0.00320362
0.00535253
0.00454652
0.00860767
0.00502511
0.0107805
0.00432551
0.0105152
0.00289972
0.0079877
0.00151391
0.00472556
0.000615561
0.00217726
0.00078126
7.32136e-13
2.4087e-13
2.08696e-11
7.78021e-12
4.63301e-10
1.95716e-10
8.01011e-09
3.83433e-09
1.07855e-07
5.8503e-08
1.13102e-06
6.95173e-07
9.23683e-06
6.43331e-06
5.87495e-05
4.63663e-05
0.000291012
0.000260253
0.00112265
0.00113767
0.00337291
0.00387315
0.00789208
0.0102692
0.0143815
0.0212049
0.02041
0.0341007
0.0225584
0.0427086
0.0194179
0.0416576
0.0130173
0.0316446
0.00679617
0.0187211
0.00276335
0.00862558
0.00309509
2.55966e-12
7.43166e-13
7.29633e-11
2.40046e-11
1.61977e-09
6.03853e-10
2.80046e-08
1.18302e-08
3.77078e-07
1.80502e-07
3.9542e-06
2.14485e-06
3.22934e-05
1.9849e-05
0.000205397
0.000143056
0.00101742
0.000802971
0.00392496
0.00351011
0.0117922
0.01195
0.0275919
0.0316841
0.05028
0.0654245
0.0713566
0.105212
0.0788678
0.131771
0.0678878
0.128528
0.0455103
0.0976344
0.0237605
0.0577609
0.00966108
0.0266129
0.00954941
6.96946e-12
1.78573e-12
1.98665e-10
5.768e-11
4.41032e-09
1.45098e-09
7.62511e-08
2.84265e-08
1.02671e-06
4.33722e-07
1.07665e-05
5.15379e-06
8.79287e-05
4.76945e-05
0.000559257
0.000343745
0.00277025
0.00192943
0.0106869
0.00843433
0.0321079
0.0287143
0.0751275
0.0761326
0.136903
0.157206
0.19429
0.252811
0.214742
0.316628
0.184845
0.308836
0.123916
0.234603
0.0646951
0.138792
0.0263053
0.0639473
0.022946
1.47789e-11
3.34174e-12
4.21274e-10
1.0794e-10
9.3522e-09
2.7153e-09
1.61692e-07
5.31961e-08
2.17716e-06
8.11649e-07
2.28307e-05
9.64458e-06
0.000186455
8.92534e-05
0.00118592
0.000643269
0.00587438
0.00361066
0.0226619
0.0157836
0.0680857
0.0537346
0.15931
0.142471
0.290305
0.294189
0.411997
0.4731
0.455365
0.592523
0.391969
0.577942
0.262767
0.439025
0.137188
0.259729
0.055781
0.119668
0.0429401
2.44068e-11
4.87029e-12
6.9572e-10
1.57313e-10
1.54448e-08
3.95731e-09
2.67029e-07
7.75287e-08
3.59551e-06
1.18291e-06
3.77041e-05
1.40561e-05
0.000307924
0.000130079
0.0019585
0.000937509
0.00970134
0.00526222
0.0374253
0.0230033
0.112441
0.0783135
0.263095
0.20764
0.479429
0.428755
0.680399
0.689502
0.75202
0.863551
0.647324
0.8423
0.43395
0.639841
0.226561
0.378533
0.0921204
0.174406
0.0625815
3.13912e-11
5.52795e-12
8.94809e-10
1.78556e-10
1.98646e-08
4.49169e-09
3.43443e-07
8.79978e-08
4.62441e-06
1.34264e-06
4.84936e-05
1.59542e-05
0.00039604
0.000147644
0.00251895
0.0010641
0.0124775
0.00597281
0.048135
0.0261095
0.144618
0.0888886
0.338382
0.235678
0.616624
0.486652
0.875104
0.782609
0.96722
0.980161
0.832564
0.95604
0.558131
0.726242
0.291394
0.429648
0.118482
0.197957
0.0710321
3.14434e-11
4.88652e-12
8.96299e-10
1.57837e-10
1.98976e-08
3.9705e-09
3.44015e-07
7.7787e-08
4.63211e-06
1.18685e-06
4.85744e-05
1.4103e-05
0.0003967
0.000130513
0.00252315
0.000940632
0.0124983
0.00527976
0.0482152
0.0230799
0.144858
0.0785745
0.338946
0.208331
0.617651
0.430184
0.876561
0.6918
0.968831
0.866429
0.83395
0.845107
0.55906
0.641973
0.291879
0.379794
0.118679
0.174987
0.06279
2.45289e-11
3.36404e-12
6.992e-10
1.0866e-10
1.55221e-08
2.73342e-09
2.68365e-07
5.35512e-08
3.6135e-06
8.17067e-07
3.78927e-05
9.70896e-06
0.000309464
8.98492e-05
0.0019683
0.000647563
0.00974987
0.00363476
0.0376125
0.015889
0.113004
0.0540933
0.264411
0.143422
0.481828
0.296153
0.683803
0.476258
0.755782
0.596478
0.650562
0.5818
0.436121
0.441956
0.227694
0.261463
0.0925812
0.120467
0.0432267
1.49023e-11
1.80364e-12
4.24792e-10
5.82585e-11
9.4303e-09
1.46553e-09
1.63043e-07
2.87116e-08
2.19535e-06
4.38073e-07
2.30214e-05
5.20548e-06
0.000188012
4.81729e-05
0.00119582
0.000347192
0.00592344
0.00194879
0.0228511
0.00851893
0.0686543
0.0290023
0.16064
0.0768962
0.29273
0.158783
0.415438
0.255347
0.459168
0.319803
0.395243
0.311933
0.264961
0.236956
0.138333
0.140184
0.0562468
0.0645887
0.0231761
7.05108e-12
7.53121e-13
2.00992e-10
2.43262e-11
4.46198e-09
6.11942e-10
7.71441e-08
1.19887e-08
1.03873e-06
1.8292e-07
1.08926e-05
2.17358e-06
8.89584e-05
2.01149e-05
0.000565807
0.000144972
0.00280269
0.000813728
0.0108121
0.00355713
0.032484
0.0121101
0.0760074
0.0321085
0.138506
0.0663009
0.196566
0.106622
0.217257
0.133536
0.18701
0.13025
0.125367
0.0989422
0.0654528
0.0585347
0.0266133
0.0269694
0.00967733
2.59826e-12
2.4491e-13
7.40638e-11
7.91071e-12
1.6442e-09
1.98999e-10
2.8427e-08
3.89864e-09
3.82765e-07
5.94842e-08
4.01384e-06
7.06833e-07
3.27805e-05
6.54121e-06
0.000208495
4.7144e-05
0.00103277
0.000264618
0.00398416
0.00115675
0.0119701
0.00393811
0.0280081
0.0104414
0.0510383
0.0215606
0.0724328
0.0346726
0.0800573
0.0434249
0.0689117
0.0423563
0.0461968
0.0321753
0.0241188
0.0190351
0.0098068
0.00877026
0.003147
7.45655e-13
6.20259e-14
2.1255e-11
2.00347e-12
4.71856e-10
5.03986e-11
8.15802e-09
9.87372e-10
1.09847e-07
1.5065e-08
1.1519e-06
1.79013e-07
9.40739e-06
1.65663e-06
5.98343e-05
1.19397e-05
0.000296386
6.70174e-05
0.00114338
0.00029296
0.00343519
0.000997367
0.00803781
0.00264441
0.0146471
0.00546044
0.0207869
0.0087812
0.022975
0.0109978
0.0197764
0.0107272
0.0132576
0.00814874
0.00692166
0.00482083
0.00281437
0.00222116
0.00079701
1.66655e-13
1.2234e-14
4.75052e-12
3.95163e-13
1.05461e-10
9.9406e-12
1.82333e-09
1.94749e-10
2.45509e-08
2.97141e-09
2.57451e-07
3.53084e-08
2.10257e-06
3.26753e-07
1.33731e-05
2.35498e-06
6.62427e-05
1.32185e-05
0.000255548
5.77833e-05
0.000767771
0.00019672
0.00179646
0.000521581
0.00327364
0.00107702
0.00464591
0.001732
0.00513495
0.0021692
0.00442006
0.00211582
0.0029631
0.00160725
0.001547
0.000950858
0.000629017
0.0004381
0.000157202
2.90085e-14
1.87926e-15
8.26891e-13
6.07011e-14
1.83568e-11
1.52698e-12
3.17375e-10
2.99154e-11
4.27341e-09
4.5644e-10
4.48128e-08
5.42373e-09
3.6598e-07
5.01926e-08
2.32776e-06
3.61749e-07
1.15304e-05
2.03049e-06
4.44814e-05
8.8761e-06
0.000133641
3.02182e-05
0.000312698
8.01203e-05
0.000569821
0.000165441
0.000808681
0.000266053
0.000893806
0.000333212
0.00076937
0.000325012
0.000515767
0.00024689
0.000269276
0.000146062
0.000109489
6.72967e-05
2.41478e-05
3.93241e-15
2.24819e-16
1.12094e-13
7.26179e-15
2.48846e-12
1.82675e-13
4.30235e-11
3.57883e-12
5.79306e-10
5.46047e-11
6.07485e-09
6.48851e-10
4.96124e-08
6.00463e-09
3.15552e-07
4.32767e-08
1.56307e-06
2.42912e-07
6.02993e-06
1.06186e-06
1.81164e-05
3.61506e-06
4.23896e-05
9.58493e-06
7.72452e-05
1.9792e-05
0.000109625
3.18284e-05
0.000121165
3.98627e-05
0.000104296
3.88817e-05
6.99177e-05
2.9536e-05
3.65033e-05
1.74736e-05
1.48424e-05
8.05083e-06
2.88885e-06
4.15163e-16
2.09463e-17
1.18343e-14
6.76576e-16
2.62718e-13
1.70197e-14
4.54219e-12
3.33438e-13
6.116e-11
5.08748e-12
6.41351e-10
6.0453e-11
5.23782e-09
5.59448e-10
3.33143e-08
4.03206e-09
1.65021e-07
2.26319e-08
6.36608e-07
9.89331e-08
1.91264e-06
3.36813e-07
4.47526e-06
8.93022e-07
8.15514e-06
1.844e-06
1.15737e-05
2.96543e-06
1.27919e-05
3.71398e-06
1.1011e-05
3.62259e-06
7.38153e-06
2.75184e-06
3.85382e-06
1.628e-06
1.56698e-06
7.5009e-07
2.69152e-07
3.41354e-17
9.73033e-16
2.16011e-14
3.73467e-13
5.02868e-12
5.27329e-11
4.30662e-10
2.73916e-09
1.35683e-08
5.2343e-08
1.5726e-07
3.67964e-07
6.70529e-07
9.51605e-07
1.05177e-06
9.05346e-07
6.06922e-07
3.16867e-07
1.28839e-07
)
;

boundaryField
{
    fixedWalls
    {
        type            calculated;
        value           nonuniform List<scalar> 
40
(
0
0
0
0
0
0
0
0
0
0
0
0
0
0
0
0
0
0
0
0
2
2
2
2
0
0
0
0
0
0
0
0
0
0
0
0
0
0
0
0
)
;
    }
    left
    {
        type            cyclic;
        value           nonuniform List<scalar> 
20
(
1
1
1
1
0
0
0
0
0
0
0
0
0
0
0
0
0
0
0
0
)
;
    }
    right
    {
        type            cyclic;
        value           nonuniform List<scalar> 
20
(
1
1
1
1
0
0
0
0
0
0
0
0
0
0
0
0
0
0
0
0
)
;
    }
    frontAndBack
    {
        type            empty;
        value           nonuniform 0();
    }
}


// ************************************************************************* //
