/*--------------------------------*- C++ -*----------------------------------*\
  =========                 |
  \\      /  F ield         | OpenFOAM: The Open Source CFD Toolbox
   \\    /   O peration     | Website:  https://openfoam.org
    \\  /    A nd           | Version:  dev
     \\/     M anipulation  |
\*---------------------------------------------------------------------------*/
FoamFile
{
    version     2.0;
    format      ascii;
    class       volScalarField;
    location    "0.3";
    object      T;
}
// * * * * * * * * * * * * * * * * * * * * * * * * * * * * * * * * * * * * * //

dimensions      [0 0 0 0 0 0 0];

internalField   nonuniform List<scalar> 
400
(
-3.00538e-05
6.3476e-05
0.000335968
0.000518727
0.000445497
0.000238104
7.3529e-05
3.96e-06
-8.32456e-06
-4.74439e-06
-1.54494e-06
-3.42885e-07
-2.52635e-08
2.70682e-08
1.62104e-08
7.0344e-09
-9.74951e-09
1.08958e-07
-7.62961e-07
5.20117e-06
9.14083e-05
0.000698284
0.00129935
0.00124185
0.00068143
0.000161831
-6.26902e-05
-7.68271e-05
-3.37086e-05
-5.80174e-06
1.82062e-06
1.40174e-06
2.61759e-07
-1.11784e-07
-1.08069e-07
-4.03166e-08
-2.48842e-08
1.58591e-07
-4.10236e-07
-3.66064e-06
0.000390864
0.0016262
0.00222175
0.00155337
0.000489306
-0.000120439
-0.000213132
-0.000106666
-1.99825e-05
7.16949e-06
5.95982e-06
1.3124e-06
-2.62596e-07
-2.49116e-07
-2.11053e-07
-2.49128e-07
-1.31206e-07
-2.36438e-08
3.22386e-06
-3.88424e-05
0.000889455
0.0024802
0.00244547
0.00105533
-0.000101831
-0.000407254
-0.000241142
-5.43512e-05
1.58221e-05
1.51232e-05
4.04e-06
2.9079e-06
7.61295e-06
9.36905e-06
5.51834e-06
-2.53532e-08
-2.67725e-06
-3.32639e-06
1.23433e-05
-0.000117678
0.00125869
0.00237094
0.00144768
1.17517e-05
-0.000554278
-0.000385653
-0.000101394
2.36558e-05
2.78846e-05
7.43656e-06
1.92517e-05
6.43696e-05
0.000115251
0.000133138
0.000101899
4.44132e-05
-1.48962e-06
-2.26013e-05
1.49221e-05
-0.000240896
0.000907145
0.000933172
-6.85919e-05
-0.000604907
-0.00044211
-0.000123209
2.999e-05
4.02995e-05
1.8249e-05
5.13284e-05
0.000224829
0.000549134
0.00092262
0.00112967
0.00101974
0.000663796
0.000282164
3.2508e-05
9.60401e-06
-0.000386539
-0.000538757
-0.000932093
-0.000789902
-0.000393277
-7.98389e-05
3.76505e-05
4.23856e-05
3.79245e-05
0.000107023
0.000439027
0.00137749
0.00311636
0.00527585
0.0067854
0.00669289
0.0050723
0.00291696
0.0012021
0.000385466
-0.000403589
-0.0027378
-0.00171876
-0.000418559
9.96419e-06
5.24631e-05
2.29567e-05
2.55995e-05
0.0001301
0.000570035
0.00206424
0.00594027
0.0132347
0.0226231
0.0298537
0.0307086
0.0247913
0.0157147
0.00772134
0.00294507
0.000333408
-0.00476801
-0.000957071
7.65218e-05
6.63274e-05
5.34838e-06
-1.44808e-05
1.86037e-05
0.000349268
0.00187563
0.00687669
0.0194632
0.0431131
0.0738454
0.098273
0.102549
0.0845989
0.0553797
0.0286263
0.0115699
0.00307453
-0.00578198
0.000276664
5.67109e-05
-1.95748e-06
-1.52412e-05
-7.34469e-05
-0.000114292
0.000538079
0.00437692
0.0173661
0.0492594
0.108193
0.185055
0.246898
0.25824
0.213245
0.139766
0.0726358
0.0295621
0.00890772
-0.00550765
0.000710508
-6.8784e-05
1.33878e-05
-3.61273e-05
-0.000243234
-0.000569459
0.000310243
0.00773055
0.0342936
0.0990208
0.215149
0.363607
0.481191
0.499911
0.409339
0.265375
0.136321
0.0550472
0.0166801
-0.00454308
0.00053801
-3.98766e-05
2.07811e-05
-8.22038e-05
-0.000520911
-0.0013254
-0.000340781
0.0114721
0.0551874
0.160183
0.341377
0.56451
0.734854
0.754897
0.612225
0.392446
0.198901
0.0793087
0.0223662
-0.00336732
0.000399514
-2.45911e-05
2.10093e-05
-0.000133589
-0.000768661
-0.00191295
-0.000657828
0.0148612
0.0714188
0.204272
0.427334
0.693769
0.889939
0.904944
0.728202
0.462771
0.231874
0.0903071
0.0223938
-0.00201901
0.00021863
-4.92112e-06
1.20677e-05
-0.000158127
-0.000818071
-0.00193606
-0.000454446
0.015596
0.0725586
0.204175
0.421975
0.677852
0.862303
0.871945
0.6989
0.441974
0.218922
0.0815962
0.0167409
-0.000873836
8.30862e-05
3.43657e-06
1.61427e-06
-0.000131028
-0.000622176
-0.00140423
-7.11338e-05
0.012609
0.0569175
0.159052
0.328206
0.526927
0.670492
0.678843
0.544918
0.343964
0.167457
0.0578994
0.00891961
-0.000179087
8.42305e-06
3.68748e-06
-2.94829e-06
-6.91512e-05
-0.000316969
-0.000707184
0.000105952
0.00745163
0.0334658
0.0946624
0.198177
0.322365
0.415087
0.424742
0.343663
0.216674
0.102253
0.0312722
0.0028051
7.85926e-05
-1.41523e-05
1.11185e-06
-1.97133e-06
-1.38197e-05
-7.69716e-05
-0.000202197
6.02673e-05
0.00282915
0.013505
0.0403578
0.0884494
0.149382
0.198439
0.208222
0.17121
0.107492
0.0479202
0.0118267
-0.000113385
8.96416e-05
-1.10513e-05
-6.42644e-07
-2.10068e-07
1.10189e-05
2.96261e-05
2.20902e-05
-2.10584e-05
0.000272521
0.00240424
0.00943183
0.0243784
0.0460894
0.0664325
0.0738698
0.0627059
0.0389058
0.0155061
0.0022379
-0.000685371
3.61393e-05
-3.47183e-06
-9.94055e-07
-2.41425e-08
1.12886e-05
4.1555e-05
6.6395e-05
-3.26083e-05
-0.000452612
-0.00119537
-0.0015874
-0.000205421
0.00405135
0.010055
0.0142482
0.0134133
0.00804304
0.00219678
-0.000534406
-0.000396882
6.79057e-07
1.83283e-07
-6.38417e-07
-4.86071e-07
4.46182e-06
2.3843e-05
5.59353e-05
2.20116e-05
-0.000352113
-0.00158821
-0.00418421
-0.0078912
-0.0112184
-0.0123005
-0.0105137
-0.00715428
-0.0040719
-0.00198966
-0.000678006
-4.85715e-05
)
;

boundaryField
{
    fixedWalls
    {
        type            zeroGradient;
    }
    left
    {
        type            cyclic;
    }
    right
    {
        type            cyclic;
    }
    frontAndBack
    {
        type            empty;
    }
}


// ************************************************************************* //
