/*--------------------------------*- C++ -*----------------------------------*\
  =========                 |
  \\      /  F ield         | OpenFOAM: The Open Source CFD Toolbox
   \\    /   O peration     | Website:  https://openfoam.org
    \\  /    A nd           | Version:  dev
     \\/     M anipulation  |
\*---------------------------------------------------------------------------*/
FoamFile
{
    version     2.0;
    format      ascii;
    class       surfaceScalarField;
    location    "0.3";
    object      T_analyticf_analytic;
}
// * * * * * * * * * * * * * * * * * * * * * * * * * * * * * * * * * * * * * //

dimensions      [0 0 0 0 0 0 0];

internalField   nonuniform List<scalar> 
760
(
1.59474e-14
7.29733e-15
4.40744e-13
2.28533e-13
9.48659e-12
5.57389e-12
1.59023e-10
1.05876e-10
2.07605e-09
1.56624e-09
2.11077e-08
1.80447e-08
1.67136e-07
1.61907e-07
1.03068e-06
1.13138e-06
4.95002e-06
6.15711e-06
1.85147e-05
2.60959e-05
5.39325e-05
8.61378e-05
0.000122352
0.000221433
0.000216172
0.000443319
0.00029745
0.000691221
0.000318753
0.000839352
0.000266024
0.000793776
0.000172908
0.000584626
8.75253e-05
0.000335339
3.45048e-05
0.000149802
5.21166e-05
1.04574e-13
4.2229e-14
2.89015e-12
1.3225e-12
6.22077e-11
3.22557e-11
1.04278e-09
6.12693e-10
1.36135e-08
9.06372e-09
1.38412e-07
1.04423e-07
1.09598e-06
9.36941e-07
6.75864e-06
6.54719e-06
3.24595e-05
3.56307e-05
0.000121409
0.000151015
0.000353659
0.000498472
0.000802317
0.00128141
0.00141753
0.00256545
0.00195051
0.00400004
0.0020902
0.00485726
0.00174444
0.00459352
0.00113383
0.00338318
0.000573942
0.00194058
0.000226263
0.000866891
0.000301595
5.34052e-13
1.9032e-13
1.47598e-11
5.96031e-12
3.17691e-10
1.45372e-10
5.32543e-09
2.76132e-09
6.95235e-08
4.08489e-08
7.06862e-07
4.70619e-07
5.59711e-06
4.22266e-06
3.45159e-05
2.95072e-05
0.000165768
0.000160582
0.000620027
0.000680602
0.00180611
0.00224654
0.00409738
0.00577514
0.00723926
0.0115621
0.00996112
0.0180276
0.0106745
0.021891
0.00890872
0.0207023
0.0057904
0.0152475
0.00293108
0.00874591
0.00115551
0.00390695
0.00135924
2.12408e-12
6.68013e-13
5.8704e-11
2.09204e-11
1.26355e-09
5.10246e-10
2.11808e-08
9.69207e-09
2.76515e-07
1.43377e-07
2.81139e-06
1.65185e-06
2.22613e-05
1.48213e-05
0.00013728
0.000103569
0.000659309
0.000563635
0.00246602
0.00238887
0.00718343
0.00788524
0.0162965
0.0202704
0.0287926
0.0405824
0.0396182
0.0632759
0.0424557
0.0768361
0.0354325
0.0726639
0.0230301
0.0535179
0.0116578
0.0306977
0.0045958
0.0137132
0.00477087
6.57936e-12
1.82604e-12
1.81836e-10
5.71867e-11
3.91386e-09
1.39478e-09
6.56077e-08
2.64937e-08
8.56508e-07
3.91928e-07
8.70833e-06
4.5154e-06
6.89547e-05
4.05147e-05
0.000425226
0.00028311
0.00204222
0.00154072
0.00763854
0.00653009
0.0222508
0.0215547
0.0504785
0.0554101
0.0891855
0.110934
0.122718
0.172967
0.131507
0.210035
0.109753
0.19863
0.071336
0.146294
0.0361101
0.0839135
0.0142355
0.0374856
0.0130414
1.58717e-11
3.88744e-12
4.38652e-10
1.21744e-10
9.44157e-09
2.96933e-09
1.58269e-07
5.64022e-08
2.06619e-06
8.34371e-07
2.10075e-05
9.61278e-06
0.000166343
8.62512e-05
0.00102579
0.000602709
0.00492653
0.00328002
0.0184268
0.0139018
0.0536766
0.0458874
0.121772
0.117962
0.215146
0.236166
0.296038
0.368228
0.31724
0.447141
0.264762
0.422861
0.172087
0.311443
0.08711
0.178642
0.0343411
0.0798026
0.0277636
2.98187e-11
6.4453e-12
8.24113e-10
2.01849e-10
1.77382e-08
4.92309e-09
2.97345e-07
9.35137e-08
3.88184e-06
1.38337e-06
3.94676e-05
1.59378e-05
0.000312514
0.000143003
0.00192719
0.00099928
0.00925566
0.00543821
0.0346191
0.023049
0.100844
0.0760805
0.228777
0.195579
0.404203
0.391558
0.556178
0.610515
0.596011
0.741351
0.497418
0.701096
0.323306
0.516366
0.163657
0.296185
0.0645178
0.132311
0.0460315
4.36296e-11
8.3224e-12
1.20581e-09
2.60635e-10
2.59539e-08
6.35687e-09
4.35064e-07
1.20748e-07
5.67976e-06
1.78626e-06
5.77474e-05
2.05795e-05
0.000457259
0.00018465
0.0028198
0.00129031
0.0135425
0.00702201
0.0506534
0.0297616
0.147551
0.0982378
0.334738
0.252538
0.591415
0.505593
0.813779
0.788319
0.872061
0.957259
0.727802
0.90528
0.47305
0.66675
0.239456
0.382445
0.0944
0.170845
0.0594376
4.97165e-11
8.36914e-12
1.37403e-09
2.62099e-10
2.95748e-08
6.39257e-09
4.9576e-07
1.21426e-07
6.47215e-06
1.79629e-06
6.58039e-05
2.0695e-05
0.000521052
0.000185687
0.00321319
0.00129755
0.0154319
0.00706144
0.0577201
0.0299288
0.168137
0.0987895
0.381437
0.253956
0.673924
0.508432
0.92731
0.792746
0.993723
0.962634
0.829339
0.910363
0.539045
0.670494
0.272863
0.384593
0.10757
0.171804
0.0597713
4.4121e-11
6.55449e-12
1.21939e-09
2.05269e-10
2.62462e-08
5.0065e-09
4.39964e-07
9.50979e-08
5.74372e-06
1.40681e-06
5.83978e-05
1.62078e-05
0.000462409
0.000145425
0.00285155
0.00101621
0.0136951
0.00553034
0.0512239
0.0234394
0.149213
0.0773693
0.338508
0.198892
0.598076
0.398191
0.822944
0.620858
0.881882
0.75391
0.735999
0.712973
0.478377
0.525113
0.242153
0.301203
0.0954632
0.134553
0.0468114
3.04942e-11
3.99782e-12
8.4278e-10
1.25201e-10
1.814e-08
3.05365e-09
3.0408e-07
5.80037e-08
3.96977e-06
8.58063e-07
4.03616e-05
9.88573e-06
0.000319593
8.87003e-05
0.00197085
0.000619823
0.00946532
0.00337316
0.0354033
0.0142966
0.103128
0.0471904
0.233959
0.121311
0.413359
0.242871
0.568777
0.378684
0.609512
0.459837
0.508685
0.434868
0.33063
0.320286
0.167364
0.183715
0.0659793
0.0820686
0.028552
1.6414e-11
1.89904e-12
4.53641e-10
5.94729e-11
9.76419e-09
1.45054e-09
1.63676e-07
2.75529e-08
2.1368e-06
4.07596e-07
2.17253e-05
4.69591e-06
0.000172026
4.21343e-05
0.00106084
0.000294428
0.00509487
0.00160231
0.0190564
0.00679114
0.0555107
0.0224163
0.125933
0.0576252
0.222498
0.115368
0.306154
0.179882
0.32808
0.218432
0.273808
0.206571
0.177967
0.152142
0.0900865
0.087268
0.0355145
0.0389841
0.0135627
6.8808e-12
7.02542e-13
1.90168e-10
2.20017e-11
4.09317e-09
5.3662e-10
6.86137e-08
1.0193e-08
8.95751e-07
1.50788e-07
9.10731e-06
1.73723e-06
7.2114e-05
1.55874e-05
0.000444708
0.000108922
0.00213578
0.000592768
0.00798851
0.00251235
0.0232702
0.00829282
0.0527913
0.0213182
0.0932717
0.04268
0.128341
0.0665465
0.137532
0.0808077
0.114781
0.0764199
0.0746044
0.0562842
0.0377645
0.0322844
0.0148878
0.014422
0.00501747
2.24641e-12
2.02412e-13
6.20851e-11
6.33899e-12
1.33632e-09
1.54608e-10
2.24007e-08
2.93676e-09
2.92441e-07
4.34442e-08
2.97331e-06
5.0052e-07
2.35435e-05
4.49094e-06
0.000145186
3.1382e-05
0.000697281
0.000170785
0.00260805
0.000723843
0.00759716
0.00238927
0.0172351
0.00614206
0.0304509
0.0122967
0.0419
0.019173
0.0449009
0.0232818
0.0374733
0.0220176
0.0243565
0.0162162
0.0123292
0.00930158
0.00486049
0.00415517
0.0014456
5.71172e-13
4.54178e-14
1.57857e-11
1.42236e-12
3.39772e-10
3.46913e-11
5.69558e-09
6.58959e-10
7.43558e-08
9.74814e-09
7.55993e-07
1.12308e-07
5.98614e-06
1.00769e-06
3.6915e-05
7.04158e-06
0.00017729
3.83212e-05
0.000663122
0.000162418
0.00193165
0.000536113
0.00438218
0.00137817
0.00774243
0.00275917
0.0106535
0.00430209
0.0114165
0.00522404
0.00952793
0.00494038
0.00619287
0.00363865
0.00313481
0.00208712
0.00123583
0.000932351
0.000324368
1.13102e-13
7.93675e-15
3.12585e-12
2.48558e-13
6.72808e-11
6.0623e-12
1.12782e-09
1.15153e-10
1.47237e-08
1.70348e-09
1.497e-07
1.96258e-08
1.18536e-06
1.76094e-07
7.30981e-06
1.23051e-06
3.51066e-05
6.69662e-06
0.00013131
2.83825e-05
0.0003825
9.36856e-05
0.000867747
0.000240836
0.00153314
0.000482165
0.00210957
0.000751789
0.00226066
0.0009129
0.0018867
0.00086333
0.0012263
0.000635853
0.000620747
0.000364723
0.000244715
0.000162928
5.66833e-05
1.74421e-14
1.08015e-15
4.82056e-13
3.38275e-14
1.03758e-11
8.25051e-13
1.73929e-10
1.56718e-11
2.27064e-09
2.31836e-10
2.30861e-08
2.67098e-09
1.82802e-07
2.39655e-08
1.12729e-06
1.67467e-07
5.414e-06
9.11378e-07
2.02501e-05
3.86273e-06
5.89877e-05
1.27502e-05
0.000133821
3.27766e-05
0.000236434
6.56203e-05
0.00032533
0.000102315
0.00034863
0.000124241
0.000290959
0.000117495
0.000189115
8.65366e-05
9.57292e-05
4.96371e-05
3.7739e-05
2.21737e-05
7.71433e-06
2.09486e-15
1.14487e-16
5.78967e-14
3.58541e-15
1.24617e-12
8.7448e-14
2.08895e-11
1.66107e-12
2.72712e-10
2.45726e-11
2.77273e-09
2.831e-10
2.19552e-08
2.54013e-09
1.35392e-07
1.775e-08
6.50241e-07
9.6598e-08
2.43211e-06
4.09415e-07
7.08464e-06
1.3514e-06
1.60723e-05
3.47403e-06
2.83966e-05
6.95517e-06
3.90734e-05
1.08445e-05
4.18718e-05
1.31685e-05
3.49452e-05
1.24534e-05
2.27134e-05
9.17211e-06
1.14974e-05
5.26109e-06
4.53259e-06
2.35022e-06
8.1765e-07
1.95947e-16
9.45041e-18
5.41547e-15
2.95961e-16
1.16563e-13
7.21848e-15
1.95393e-12
1.37114e-13
2.55086e-11
2.02837e-12
2.59352e-10
2.33688e-11
2.05362e-09
2.09678e-10
1.26641e-08
1.46519e-09
6.08215e-08
7.97377e-09
2.27492e-07
3.37955e-08
6.62675e-07
1.11553e-07
1.50336e-06
2.86767e-07
2.65613e-06
5.74121e-07
3.6548e-06
8.95167e-07
3.91655e-06
1.087e-06
3.26867e-06
1.02798e-06
2.12453e-06
7.57121e-07
1.07543e-06
4.34282e-07
4.23964e-07
1.94001e-07
6.74937e-08
1.42741e-17
3.94498e-16
8.49119e-15
1.42337e-13
1.85821e-12
1.88929e-11
1.49599e-10
9.22537e-10
4.43063e-09
1.6572e-08
4.82736e-08
1.09514e-07
1.9349e-07
2.66239e-07
2.85307e-07
2.38111e-07
1.54765e-07
7.83416e-08
3.08843e-08
)
;

boundaryField
{
    fixedWalls
    {
        type            calculated;
        value           nonuniform List<scalar> 
40
(
0
0
0
0
0
0
0
0
0
0
0
0
0
0
0
0
0
0
0
0
2
2
2
2
0
0
0
0
0
0
0
0
0
0
0
0
0
0
0
0
)
;
    }
    left
    {
        type            cyclic;
        value           nonuniform List<scalar> 
20
(
1
1
1
1
0
0
0
0
0
0
0
0
0
0
0
0
0
0
0
0
)
;
    }
    right
    {
        type            cyclic;
        value           nonuniform List<scalar> 
20
(
1
1
1
1
0
0
0
0
0
0
0
0
0
0
0
0
0
0
0
0
)
;
    }
    frontAndBack
    {
        type            empty;
        value           nonuniform 0();
    }
}


// ************************************************************************* //
