/*--------------------------------*- C++ -*----------------------------------*\
  =========                 |
  \\      /  F ield         | OpenFOAM: The Open Source CFD Toolbox
   \\    /   O peration     | Website:  https://openfoam.org
    \\  /    A nd           | Version:  dev
     \\/     M anipulation  |
\*---------------------------------------------------------------------------*/
FoamFile
{
    version     2.0;
    format      ascii;
    class       volScalarField;
    location    "0.3";
    object      T_analytic;
}
// * * * * * * * * * * * * * * * * * * * * * * * * * * * * * * * * * * * * * //

dimensions      [0 0 0 0 0 0 0];

internalField   nonuniform List<scalar> 
400
(
2.76201e-15
8.64986e-14
2.1097e-12
4.00735e-11
5.92817e-10
6.82984e-09
6.12811e-08
4.28222e-07
2.33044e-06
9.87719e-06
3.26028e-05
8.38114e-05
0.000167794
0.000261624
0.000317691
0.000300441
0.000221278
0.000126925
5.66994e-05
1.97259e-05
1.81117e-14
5.67209e-13
1.38342e-11
2.62779e-10
3.88736e-09
4.47862e-08
4.01847e-07
2.80804e-06
1.52817e-05
6.4769e-05
0.000213791
0.000549588
0.0011003
0.00171559
0.00208324
0.00197012
0.00145102
0.000832299
0.000371803
0.000129352
9.24953e-14
2.8967e-12
7.06504e-11
1.342e-09
1.98525e-08
2.2872e-07
2.05221e-06
1.43405e-05
7.80427e-05
0.000330771
0.00109182
0.00280671
0.00561917
0.00876139
0.010639
0.0100613
0.00741026
0.0042505
0.00189877
0.00066059
3.6788e-13
1.1521e-11
2.80997e-10
5.33751e-09
7.8959e-08
9.09686e-07
8.16221e-06
5.70362e-05
0.000310398
0.00131557
0.00434247
0.0111631
0.022349
0.0348465
0.0423143
0.0400166
0.0294727
0.0169055
0.00755196
0.00262736
1.13951e-12
3.56865e-11
8.70391e-10
1.6533e-08
2.44577e-07
2.81777e-06
2.52826e-05
0.00017667
0.000961463
0.004075
0.0134508
0.0345778
0.0692265
0.107938
0.131069
0.123952
0.0912922
0.0523649
0.0233923
0.00813827
2.7489e-12
8.60882e-11
2.09969e-09
3.98833e-08
5.90004e-07
6.79743e-06
6.09903e-05
0.00042619
0.00231938
0.00983032
0.0324481
0.0834137
0.166998
0.260383
0.316184
0.299015
0.220228
0.126322
0.0564303
0.0196323
5.16446e-12
1.61737e-10
3.94476e-09
7.49303e-08
1.10846e-06
1.27706e-05
0.000114585
0.000800699
0.00435751
0.0184686
0.0609614
0.156712
0.313746
0.489191
0.594027
0.561771
0.413751
0.237326
0.106018
0.036884
7.55645e-12
2.36647e-10
5.77182e-09
1.09635e-07
1.62186e-06
1.86854e-05
0.000167656
0.00117155
0.00637574
0.0270225
0.0891964
0.229296
0.459061
0.715766
0.869157
0.821962
0.605385
0.347247
0.155121
0.0539672
8.61066e-12
2.69663e-10
6.57705e-09
1.2493e-07
1.84813e-06
2.12923e-05
0.000191046
0.001335
0.00726523
0.0307925
0.10164
0.261285
0.523105
0.815623
0.990414
0.936635
0.689843
0.395692
0.176762
0.0614963
7.64155e-12
2.39313e-10
5.83682e-09
1.1087e-07
1.64012e-06
1.88959e-05
0.000169544
0.00118475
0.00644755
0.0273269
0.090201
0.231878
0.464231
0.723827
0.878946
0.831219
0.612203
0.351158
0.156868
0.054575
5.28145e-12
1.65401e-10
4.03411e-09
7.66276e-08
1.13357e-06
1.30599e-05
0.00011718
0.000818836
0.00445621
0.0188869
0.0623423
0.160262
0.320853
0.500272
0.607482
0.574496
0.423124
0.242702
0.108419
0.0377195
2.84283e-12
8.90297e-11
2.17143e-09
4.12461e-08
6.10164e-07
7.02969e-06
6.30743e-05
0.000440753
0.00239863
0.0101662
0.0335568
0.0862639
0.172704
0.26928
0.326988
0.309232
0.227753
0.130639
0.0583585
0.0203031
1.19172e-12
3.73215e-11
9.1027e-10
1.72905e-08
2.55782e-07
2.94687e-06
2.64409e-05
0.000184765
0.00100551
0.00426171
0.0140671
0.0361621
0.0723982
0.112883
0.137074
0.129631
0.0954749
0.0547641
0.0244641
0.00851114
3.89068e-13
1.21846e-11
2.97181e-10
5.64492e-09
8.35067e-08
9.6208e-07
8.63231e-06
6.03212e-05
0.000328276
0.00139134
0.00459257
0.011806
0.0236362
0.0368535
0.0447514
0.0423214
0.0311702
0.0178791
0.00798691
0.00277868
9.89243e-14
3.09804e-12
7.5561e-11
1.43527e-09
2.12324e-08
2.44618e-07
2.19485e-06
1.53372e-05
8.34672e-05
0.000353762
0.0011677
0.00300179
0.00600973
0.00937036
0.0113785
0.0107606
0.00792532
0.00454594
0.00203075
0.000706505
1.95887e-14
6.13466e-13
1.49624e-11
2.84209e-10
4.20438e-09
4.84386e-08
4.34618e-07
3.03704e-06
1.6528e-05
7.0051e-05
0.000231226
0.000594407
0.00119003
0.00185549
0.00225313
0.00213079
0.00156935
0.000900175
0.000402124
0.0001399
3.0209e-15
9.46063e-14
2.30744e-12
4.38296e-11
6.48383e-10
7.47001e-09
6.70251e-08
4.6836e-07
2.54888e-06
1.0803e-05
3.56587e-05
9.16672e-05
0.000183522
0.000286147
0.000347469
0.000328602
0.000242019
0.000138821
6.20139e-05
2.15749e-05
3.62821e-16
1.13626e-14
2.77132e-13
5.2641e-12
7.78731e-11
8.97175e-10
8.04996e-09
5.62518e-08
3.06129e-07
1.29748e-06
4.28274e-06
1.10096e-05
2.20417e-05
3.43673e-05
4.17323e-05
3.94663e-05
2.90674e-05
1.6673e-05
7.4481e-06
2.59122e-06
3.39371e-17
1.06282e-15
2.59221e-14
4.92387e-13
7.284e-12
8.39189e-11
7.52967e-10
5.26161e-09
2.86344e-08
1.21362e-07
4.00594e-07
1.0298e-06
2.06171e-06
3.21461e-06
3.90351e-06
3.69155e-06
2.71887e-06
1.55954e-06
6.96671e-07
2.42375e-07
2.4722e-18
7.74226e-17
1.88833e-15
3.58687e-14
5.30614e-13
6.1132e-12
5.48511e-11
3.8329e-10
2.08591e-09
8.84081e-09
2.91819e-08
7.50173e-08
1.50188e-07
2.34173e-07
2.84357e-07
2.68917e-07
1.9806e-07
1.13607e-07
5.07501e-08
1.76562e-08
)
;

boundaryField
{
    fixedWalls
    {
        type            zeroGradient;
    }
    left
    {
        type            cyclic;
    }
    right
    {
        type            cyclic;
    }
    frontAndBack
    {
        type            empty;
    }
}


// ************************************************************************* //
