/*--------------------------------*- C++ -*----------------------------------*\
  =========                 |
  \\      /  F ield         | OpenFOAM: The Open Source CFD Toolbox
   \\    /   O peration     | Website:  https://openfoam.org
    \\  /    A nd           | Version:  dev
     \\/     M anipulation  |
\*---------------------------------------------------------------------------*/
FoamFile
{
    version     2.0;
    format      ascii;
    class       volScalarField;
    location    "0.1";
    object      T;
}
// * * * * * * * * * * * * * * * * * * * * * * * * * * * * * * * * * * * * * //

dimensions      [0 0 0 0 0 0 0];

internalField   nonuniform List<scalar> 
400
(
-1.43987e-05
-1.4815e-05
-3.55072e-06
1.63689e-06
1.13136e-06
1.49472e-07
-7.17373e-08
-3.16547e-08
-2.27356e-08
-6.10117e-08
1.62216e-08
1.96351e-07
3.7365e-07
4.34138e-07
3.37054e-07
1.54351e-07
4.97424e-09
-4.72335e-08
-1.07079e-07
9.9634e-07
-1.30388e-05
2.75963e-06
8.51529e-06
2.47595e-06
-6.70699e-07
-4.78545e-07
-4.47843e-08
5.16165e-09
-1.31124e-07
-1.74122e-07
8.19961e-07
2.86707e-06
5.38514e-06
7.15729e-06
7.03833e-06
5.06264e-06
2.49196e-06
6.36593e-07
-2.82925e-07
1.34008e-06
6.96748e-05
9.48924e-05
2.78187e-05
-1.01187e-05
-7.63197e-06
-8.897e-07
5.00857e-07
8.45687e-08
-2.90569e-07
1.09836e-06
1.00455e-05
2.89997e-05
5.61676e-05
8.13863e-05
9.05005e-05
7.76626e-05
5.11642e-05
2.53312e-05
8.90856e-06
-4.23141e-07
0.000464322
0.000337224
1.03621e-05
-6.10388e-05
-1.95974e-05
1.37657e-06
1.93827e-06
3.84944e-07
2.06904e-06
1.78935e-05
8.06744e-05
0.000219466
0.000436262
0.000663371
0.000783588
0.000724293
0.000524883
0.000296486
0.000129356
1.55421e-05
0.00152635
0.000648057
-0.000152459
-0.000153396
-2.32202e-05
8.40817e-06
3.57617e-06
3.15716e-06
2.3572e-05
0.000126338
0.000474682
0.00127071
0.00257363
0.00402482
0.0049131
0.00471411
0.00356625
0.00212105
0.000983452
0.000253568
0.0033907
0.000646876
-0.000504135
-0.000221824
-3.77494e-06
1.56641e-05
4.85616e-06
1.89591e-05
0.000126994
0.000602462
0.00212643
0.00567284
0.0116117
0.0184306
0.0228769
0.0223414
0.017216
0.0104454
0.00494246
0.00158923
0.00533891
-5.81409e-05
-0.000818901
-0.000177931
2.46469e-05
1.48749e-05
9.93665e-06
7.60315e-05
0.00046874
0.00213011
0.00735861
0.0196
0.0402917
0.0643693
0.0804527
0.0790626
0.0612362
0.037308
0.0177071
0.00617693
0.00570018
-0.00111809
-0.000730764
-5.26718e-05
2.80447e-05
8.36626e-06
2.85648e-05
0.000220642
0.00129302
0.00576789
0.0197786
0.0525473
0.108081
0.172983
0.216508
0.212734
0.1644
0.0997491
0.0471009
0.0169291
0.0032324
-0.00139342
-0.000285048
1.55825e-05
9.09263e-06
6.75762e-06
6.45664e-05
0.000480155
0.00274345
0.0121108
0.0413771
0.109591
0.225247
0.36046
0.450622
0.441301
0.339044
0.204084
0.0955766
0.0345965
-0.000944659
-0.00049656
6.29339e-06
3.78481e-06
-4.90327e-07
6.57088e-06
9.22092e-05
0.00075856
0.00445714
0.0197743
0.0674423
0.178209
0.366291
0.586351
0.732044
0.713887
0.544392
0.324495
0.150542
0.0545491
-0.00379083
0.000208262
-2.16092e-06
-5.48114e-07
-2.04296e-06
-7.1326e-06
4.69566e-05
0.000756627
0.00528654
0.0248582
0.0862309
0.228307
0.468471
0.748362
0.932214
0.906101
0.687418
0.40695
0.187824
0.0667949
-0.00420144
0.000176663
-6.06575e-06
3.13701e-07
-3.91569e-06
-2.76803e-05
-5.64005e-05
0.000432447
0.00465503
0.0242902
0.0868222
0.230966
0.47232
0.75144
0.933787
0.906826
0.687655
0.406788
0.187641
0.0634516
-0.00333712
0.000188693
-8.16773e-06
8.42031e-07
-3.72031e-06
-3.55142e-05
-0.000115641
0.000122921
0.00324607
0.0186917
0.0684944
0.183189
0.374093
0.593965
0.73795
0.718099
0.546482
0.324647
0.149666
0.0470533
-0.00194229
0.000122351
-6.35076e-06
1.02248e-06
-2.48291e-06
-2.97164e-05
-0.000110741
-3.80873e-05
0.00179203
0.0113004
0.0422104
0.113383
0.231591
0.367903
0.458267
0.448182
0.34349
0.205642
0.0944362
0.0271516
-0.000827777
5.46471e-05
-3.13732e-06
7.43519e-07
-1.28332e-06
-1.79639e-05
-7.01147e-05
-6.1473e-05
0.000792976
0.00535851
0.0201812
0.0541809
0.110562
0.175859
0.220005
0.216777
0.167829
0.101481
0.0461636
0.011926
-0.000235786
1.50376e-05
-8.67648e-07
3.54206e-07
-5.77364e-07
-8.22869e-06
-3.15607e-05
-3.18725e-05
0.000292053
0.00198942
0.00736115
0.01945
0.0393075
0.0623089
0.0781525
0.0776267
0.0608412
0.0371849
0.0166035
0.00372955
-2.64269e-05
9.37095e-07
-2.30003e-09
1.07908e-07
-2.59881e-07
-2.96236e-06
-1.01624e-05
-7.3526e-06
9.60618e-05
0.000576397
0.00196525
0.00487284
0.00941773
0.0145099
0.0179578
0.0178443
0.0141392
0.0087118
0.00372666
0.000643265
1.23518e-05
-1.26124e-06
1.125e-07
1.59538e-08
-1.16414e-07
-8.60794e-07
-2.21091e-06
9.83912e-07
2.99646e-05
0.00012921
0.000340084
0.00063935
0.000923086
0.00105119
0.000980091
0.000791253
0.00057191
0.000322718
5.63849e-05
-6.3958e-05
7.51091e-06
-6.14117e-07
4.8967e-08
-2.0482e-09
-4.37122e-08
-1.99237e-07
-2.43003e-07
1.40788e-06
8.51889e-06
2.16923e-05
1.81483e-05
-6.86228e-05
-0.000313595
-0.000713466
-0.00110805
-0.00126375
-0.00108608
-0.000708728
-0.000335895
-8.09258e-05
1.86993e-06
-1.33902e-07
9.92041e-09
-1.89135e-09
-1.33864e-08
-3.58914e-08
3.94597e-08
6.18516e-07
2.08563e-06
2.02299e-06
-1.18519e-05
-6.65011e-05
-0.000188527
-0.000372154
-0.000551469
-0.000628795
-0.000552766
-0.000363537
-0.00015692
-2.47679e-05
)
;

boundaryField
{
    fixedWalls
    {
        type            zeroGradient;
    }
    left
    {
        type            cyclic;
    }
    right
    {
        type            cyclic;
    }
    frontAndBack
    {
        type            empty;
    }
}


// ************************************************************************* //
