/*--------------------------------*- C++ -*----------------------------------*\
  =========                 |
  \\      /  F ield         | OpenFOAM: The Open Source CFD Toolbox
   \\    /   O peration     | Website:  https://openfoam.org
    \\  /    A nd           | Version:  dev
     \\/     M anipulation  |
\*---------------------------------------------------------------------------*/
FoamFile
{
    version     2.0;
    format      ascii;
    class       volScalarField;
    location    "0.1";
    object      T_analytic;
}
// * * * * * * * * * * * * * * * * * * * * * * * * * * * * * * * * * * * * * //

dimensions      [0 0 0 0 0 0 0];

internalField   nonuniform List<scalar> 
400
(
1.68828e-16
5.556e-15
1.42399e-13
2.84236e-12
4.41852e-11
5.34935e-10
5.04372e-09
3.70363e-08
2.11803e-07
9.43324e-07
3.27203e-06
8.83892e-06
1.85955e-05
3.0468e-05
3.88781e-05
3.86361e-05
2.99025e-05
1.80239e-05
8.46087e-06
3.0932e-06
1.41387e-15
4.65295e-14
1.19254e-12
2.38037e-11
3.70035e-10
4.47989e-09
4.22394e-08
3.10166e-07
1.77377e-06
7.9e-06
2.74021e-05
7.40228e-05
0.000155731
0.000255158
0.00032559
0.000323563
0.000250422
0.000150943
7.08567e-05
2.59045e-05
9.22152e-15
3.03474e-13
7.77797e-12
1.55252e-10
2.41343e-09
2.92186e-08
2.75493e-07
2.02296e-06
1.15688e-05
5.15252e-05
0.000178721
0.00048279
0.0010157
0.00166419
0.00212356
0.00211034
0.0016333
0.000984479
0.00046214
0.000168953
4.68405e-14
1.54149e-12
3.9508e-11
7.886e-10
1.2259e-08
1.48415e-07
1.39936e-06
1.02756e-05
5.87637e-05
0.000261721
0.00090781
0.00245232
0.00515924
0.0084532
0.0107866
0.0107194
0.00829631
0.00500064
0.00234743
0.000858195
1.85296e-13
6.09797e-12
1.5629e-10
3.11962e-09
4.84953e-08
5.87116e-07
5.53572e-06
4.06491e-05
0.000232463
0.00103534
0.0035912
0.00970113
0.0204095
0.03344
0.0426705
0.0424049
0.0328194
0.019782
0.0092862
0.00339493
5.70872e-13
1.8787e-11
4.81507e-10
9.61111e-09
1.49407e-07
1.80882e-06
1.70548e-05
0.000125234
0.000716187
0.00318974
0.011064
0.0298878
0.0628786
0.103024
0.131462
0.130643
0.101112
0.0609456
0.0286095
0.0104593
1.36974e-12
4.5077e-11
1.15531e-09
2.30607e-08
3.58484e-07
4.34004e-06
4.09208e-05
0.000300484
0.0017184
0.00765339
0.0265467
0.0717121
0.150869
0.247193
0.315426
0.313463
0.242605
0.146231
0.0686448
0.0250958
2.55954e-12
8.42325e-11
2.15886e-09
4.3092e-08
6.69875e-07
8.10995e-06
7.6466e-05
0.000561494
0.00321106
0.0143014
0.049606
0.134004
0.28192
0.461914
0.589417
0.585747
0.453341
0.273253
0.128272
0.0468949
3.72488e-12
1.22583e-10
3.14178e-09
6.27115e-08
9.74866e-07
1.18024e-05
0.000111281
0.00081714
0.00467304
0.0208127
0.0721914
0.195015
0.410276
0.67222
0.857775
0.852435
0.659744
0.397664
0.186674
0.0682459
4.22172e-12
1.38934e-10
3.56084e-09
7.10762e-08
1.1049e-06
1.33766e-05
0.000126124
0.000926134
0.00529635
0.0235888
0.0818206
0.221027
0.465001
0.761884
0.972188
0.966136
0.747744
0.450706
0.211573
0.0773488
3.72643e-12
1.22634e-10
3.14309e-09
6.27376e-08
9.75272e-07
1.18073e-05
0.000111327
0.00081748
0.00467499
0.0208214
0.0722214
0.195096
0.410447
0.6725
0.858132
0.85279
0.660019
0.397829
0.186751
0.0682743
2.56167e-12
8.43027e-11
2.16066e-09
4.31279e-08
6.70434e-07
8.11671e-06
7.65298e-05
0.000561962
0.00321374
0.0143133
0.0496474
0.134115
0.282155
0.462299
0.589908
0.586235
0.453718
0.273481
0.128379
0.046934
1.37145e-12
4.51334e-11
1.15676e-09
2.30895e-08
3.58932e-07
4.34546e-06
4.0972e-05
0.000300859
0.00172055
0.00766296
0.0265799
0.0718017
0.151058
0.247502
0.315821
0.313854
0.242908
0.146414
0.0687306
0.0251272
5.71824e-13
1.88183e-11
4.82309e-10
9.62714e-09
1.49656e-07
1.81184e-06
1.70832e-05
0.000125443
0.000717381
0.00319506
0.0110824
0.0299377
0.0629835
0.103196
0.131681
0.130861
0.10128
0.0610472
0.0286572
0.0104768
1.85683e-13
6.11069e-12
1.56616e-10
3.12612e-09
4.85964e-08
5.8834e-07
5.54726e-06
4.07339e-05
0.000232948
0.0010375
0.00359869
0.00972136
0.020452
0.0335097
0.0427595
0.0424933
0.0328878
0.0198233
0.00930556
0.00340201
4.69577e-14
1.54534e-12
3.96069e-11
7.90573e-10
1.22897e-08
1.48787e-07
1.40286e-06
1.03013e-05
5.89107e-05
0.000262376
0.000910081
0.00245846
0.00517215
0.00847435
0.0108135
0.0107462
0.00831706
0.00501315
0.0023533
0.000860342
9.24844e-15
3.0436e-13
7.80068e-12
1.55705e-10
2.42048e-09
2.93039e-08
2.76297e-07
2.02886e-06
1.16026e-05
5.16756e-05
0.000179243
0.000484199
0.00101867
0.00166905
0.00212976
0.0021165
0.00163807
0.000987353
0.000463489
0.000169447
1.41859e-15
4.66848e-14
1.19652e-12
2.38832e-11
3.7127e-10
4.49484e-09
4.23803e-08
3.11201e-07
1.77969e-06
7.92637e-06
2.74935e-05
7.42699e-05
0.00015625
0.00025601
0.000326677
0.000324643
0.000251258
0.000151447
7.10932e-05
2.59909e-05
1.69462e-16
5.57687e-15
1.42934e-13
2.85303e-12
4.43511e-11
5.36943e-10
5.06266e-09
3.71754e-08
2.12598e-07
9.46867e-07
3.28432e-06
8.87212e-06
1.86653e-05
3.05824e-05
3.90241e-05
3.87811e-05
3.00148e-05
1.80915e-05
8.49264e-06
3.10482e-06
1.57657e-17
5.18837e-16
1.32977e-14
2.65429e-13
4.12615e-12
4.99539e-11
4.70999e-10
3.45857e-09
1.97788e-08
8.80907e-08
3.05553e-07
8.25407e-07
1.73651e-06
2.8452e-06
3.63056e-06
3.60796e-06
2.79239e-06
1.68313e-06
7.90103e-07
2.88853e-07
)
;

boundaryField
{
    fixedWalls
    {
        type            zeroGradient;
    }
    left
    {
        type            cyclic;
    }
    right
    {
        type            cyclic;
    }
    frontAndBack
    {
        type            empty;
    }
}


// ************************************************************************* //
