/*--------------------------------*- C++ -*----------------------------------*\
  =========                 |
  \\      /  F ield         | OpenFOAM: The Open Source CFD Toolbox
   \\    /   O peration     | Website:  https://openfoam.org
    \\  /    A nd           | Version:  dev
     \\/     M anipulation  |
\*---------------------------------------------------------------------------*/
FoamFile
{
    version     2.0;
    format      ascii;
    class       surfaceScalarField;
    location    "0.1";
    object      T_analyticf_analytic;
}
// * * * * * * * * * * * * * * * * * * * * * * * * * * * * * * * * * * * * * //

dimensions      [0 0 0 0 0 0 0];

internalField   nonuniform List<scalar> 
760
(
9.99252e-16
5.04079e-16
2.90206e-14
1.65889e-14
6.56394e-13
4.2517e-13
1.15624e-11
8.4866e-12
1.58621e-10
1.31926e-10
1.69472e-09
1.59719e-09
1.41014e-08
1.50593e-08
9.13801e-08
1.10582e-07
4.61177e-07
6.32392e-07
1.81264e-06
2.81654e-06
5.54856e-06
9.76949e-06
1.32274e-05
2.63909e-05
2.45583e-05
5.55217e-05
3.55096e-05
9.097e-05
3.99872e-05
0.000116081
3.50689e-05
0.000115358
2.39524e-05
8.92816e-05
1.2741e-05
5.38149e-05
5.27817e-06
2.52621e-05
9.23556e-06
8.36837e-15
3.72544e-15
2.43037e-13
1.22602e-13
5.49707e-12
3.14226e-12
9.68313e-11
6.2721e-11
1.32839e-09
9.75014e-10
1.41927e-08
1.18042e-08
1.18094e-07
1.11297e-07
7.65275e-07
8.17264e-07
3.86219e-06
4.67375e-06
1.51802e-05
2.08159e-05
4.64672e-05
7.22023e-05
0.000110775
0.000195044
0.000205667
0.000410339
0.00029738
0.000672322
0.000334878
0.000857905
0.000293689
0.000852564
0.000200593
0.000659844
0.000106701
0.000397724
4.42028e-05
0.000186702
6.82563e-05
5.458e-14
2.14429e-14
1.58513e-12
7.05671e-13
3.58528e-11
1.80862e-11
6.31551e-10
3.6101e-10
8.66401e-09
5.61199e-09
9.25671e-08
6.79424e-08
7.70229e-07
6.40606e-07
4.99126e-06
4.70401e-06
2.51899e-05
2.69012e-05
9.90078e-05
0.000119812
0.000303067
0.000415582
0.000722494
0.00112264
0.00134139
0.00236183
0.00193957
0.00386975
0.00218413
0.00493793
0.00191549
0.00490719
0.0013083
0.00379793
0.000695924
0.00228922
0.000288298
0.00107462
0.000392869
2.77238e-13
9.61205e-14
8.05164e-12
3.16326e-12
1.82114e-10
8.10736e-11
3.20795e-09
1.61827e-09
4.40087e-08
2.51564e-08
4.70192e-07
3.0456e-07
3.91236e-06
2.8716e-06
2.5353e-05
2.10863e-05
0.000127952
0.000120588
0.000502908
0.000537073
0.00153942
0.0018629
0.00366989
0.00503236
0.00681358
0.0105872
0.00985198
0.0173466
0.0110943
0.0221349
0.0097297
0.0219971
0.00664549
0.0170247
0.00353493
0.0102617
0.0014644
0.00481711
0.00176109
1.09673e-12
3.35563e-13
3.18515e-11
1.10432e-11
7.20424e-10
2.83034e-10
1.26903e-08
5.64949e-09
1.74094e-07
8.78228e-08
1.86003e-06
1.06324e-06
1.54769e-05
1.00249e-05
0.000100294
7.36137e-05
0.000506164
0.000420981
0.00198945
0.00187496
0.0060898
0.00650351
0.0145177
0.0175683
0.0269538
0.0369606
0.0389735
0.0605583
0.0438878
0.0772744
0.0384897
0.0767933
0.0262889
0.0594344
0.0139838
0.0358244
0.00579304
0.0168169
0.00614807
3.37886e-12
9.12346e-13
9.81299e-11
3.00247e-11
2.21952e-09
7.69526e-10
3.90971e-08
1.53601e-08
5.36358e-07
2.38777e-07
5.7305e-06
2.89079e-06
4.76822e-05
2.72563e-05
0.000308991
0.000200145
0.00155942
0.00114458
0.00612922
0.00509773
0.0187618
0.017682
0.0447271
0.0477656
0.083041
0.10049
0.120072
0.164649
0.135212
0.210097
0.118581
0.208789
0.0809923
0.161593
0.0430822
0.097401
0.0178475
0.0457226
0.0167157
8.10714e-12
1.93184e-12
2.3545e-10
6.35754e-11
5.32547e-09
1.62942e-09
9.38085e-08
3.25241e-08
1.28693e-06
5.05596e-07
1.37496e-05
6.12107e-06
0.000114407
5.77136e-05
0.000741386
0.000423794
0.00374163
0.00242358
0.0147063
0.0107941
0.0450166
0.0374407
0.107317
0.101141
0.199246
0.212782
0.288097
0.348634
0.324424
0.444869
0.284521
0.442099
0.194331
0.342164
0.10337
0.206241
0.0428229
0.0968148
0.0353945
1.51493e-11
3.18573e-12
4.39971e-10
1.0484e-10
9.95136e-09
2.68703e-09
1.75294e-07
5.36344e-08
2.40479e-06
8.3376e-07
2.5693e-05
1.0094e-05
0.000213786
9.51734e-05
0.00138538
0.000698864
0.00699174
0.00399665
0.0274807
0.0178002
0.0841196
0.0617421
0.200536
0.166788
0.372319
0.350891
0.538348
0.574921
0.606231
0.733617
0.531666
0.72905
0.363134
0.56425
0.193161
0.340104
0.0800204
0.159654
0.0583677
2.20467e-11
4.0914e-12
6.40287e-10
1.34645e-10
1.44822e-08
3.45093e-09
2.55104e-07
6.88823e-08
3.49968e-06
1.07079e-06
3.73909e-05
1.29637e-05
0.000311121
0.000122231
0.00201614
0.000897546
0.010175
0.00513287
0.0399925
0.0228607
0.122419
0.079295
0.291839
0.214204
0.541833
0.450647
0.783455
0.738366
0.882244
0.942179
0.773731
0.936314
0.528466
0.724662
0.281107
0.436794
0.116453
0.205042
0.0749613
2.49874e-11
4.09226e-12
7.25692e-10
1.34673e-10
1.64138e-08
3.45165e-09
2.89131e-07
6.88966e-08
3.96649e-06
1.07102e-06
4.23783e-05
1.29664e-05
0.00035262
0.000122256
0.00228506
0.000897733
0.0115322
0.00513394
0.0453269
0.0228655
0.138748
0.0793115
0.330766
0.214249
0.614106
0.450741
0.887956
0.73852
0.999922
0.942375
0.876935
0.936509
0.598956
0.724813
0.318602
0.436885
0.131986
0.205085
0.0749769
2.20559e-11
3.18772e-12
6.40554e-10
1.04906e-10
1.44882e-08
2.68871e-09
2.55211e-07
5.36679e-08
3.50114e-06
8.34281e-07
3.74065e-05
1.01004e-05
0.000311251
9.52329e-05
0.00201698
0.000699301
0.0101793
0.00399915
0.0400092
0.0178114
0.12247
0.0617807
0.291961
0.166892
0.542059
0.351111
0.783781
0.57528
0.882612
0.734076
0.774053
0.729506
0.528687
0.564603
0.281224
0.340317
0.116502
0.159754
0.0584042
1.51619e-11
1.93385e-12
4.40338e-10
6.36417e-11
9.95965e-09
1.63112e-09
1.7544e-07
3.2558e-08
2.4068e-06
5.06122e-07
2.57144e-05
6.12745e-06
0.000213964
5.77737e-05
0.00138653
0.000424236
0.00699757
0.00242611
0.0275036
0.0108054
0.0841897
0.0374797
0.200703
0.101246
0.372629
0.213004
0.538797
0.348998
0.606736
0.445332
0.532109
0.44256
0.363436
0.34252
0.193322
0.206456
0.0800871
0.0969156
0.0354313
8.11728e-12
9.13677e-13
2.35745e-10
3.00685e-11
5.33213e-09
7.70648e-10
9.39258e-08
1.53825e-08
1.28853e-06
2.39125e-07
1.37668e-05
2.895e-06
0.00011455
2.72961e-05
0.000742313
0.000200436
0.00374631
0.00114625
0.0147247
0.00510516
0.0450729
0.0177078
0.107451
0.0478352
0.199495
0.100637
0.288457
0.164889
0.32483
0.210404
0.284877
0.209094
0.194574
0.161829
0.1035
0.0975431
0.0428764
0.0457892
0.0167401
3.38449e-12
3.36193e-13
9.82935e-11
1.10639e-11
2.22322e-09
2.83565e-10
3.91623e-08
5.66009e-09
5.37253e-07
8.79875e-08
5.74005e-06
1.06523e-06
4.77617e-05
1.00437e-05
0.000309506
7.37518e-05
0.00156202
0.00042177
0.00613944
0.00187848
0.0187931
0.00651571
0.0448016
0.0176013
0.0831794
0.0370299
0.120272
0.0606719
0.135437
0.0774193
0.118779
0.0769374
0.0811274
0.0595459
0.043154
0.0358916
0.0178773
0.0168484
0.00615961
1.09901e-12
9.63409e-14
3.19179e-11
3.17051e-12
7.21925e-10
8.12595e-11
1.27168e-08
1.62198e-09
1.74457e-07
2.52141e-08
1.86391e-06
3.05258e-07
1.55092e-05
2.87818e-06
0.000100503
2.11346e-05
0.000507219
0.000120864
0.0019936
0.000538304
0.00610249
0.00186717
0.014548
0.0050439
0.02701
0.0106115
0.0390547
0.0173864
0.0439793
0.0221856
0.03857
0.0220475
0.0263437
0.0170637
0.014013
0.0102852
0.00580511
0.00482816
0.00176512
2.77932e-13
2.1501e-14
8.07179e-12
7.07584e-13
1.82569e-10
1.81352e-11
3.21597e-09
3.61988e-10
4.41188e-08
5.6272e-09
4.71369e-07
6.81265e-08
3.92215e-06
6.42343e-07
2.54164e-05
4.71676e-06
0.000128272
2.69741e-05
0.000504166
0.000120137
0.00154327
0.000416709
0.00367907
0.00112568
0.00683062
0.00236823
0.00987663
0.00388024
0.011122
0.00495131
0.00975404
0.00492049
0.00666211
0.00380823
0.00354377
0.00229543
0.00146807
0.00107753
0.000393934
5.47394e-14
3.7371e-15
1.58976e-12
1.22985e-13
3.59575e-11
3.15209e-12
6.33394e-10
6.29172e-11
8.68931e-09
9.78064e-10
9.28373e-08
1.18411e-08
7.72478e-07
1.11646e-07
5.00583e-06
8.19821e-07
2.52635e-05
4.68837e-06
9.92969e-05
2.0881e-05
0.000303952
7.24282e-05
0.000724603
0.000195655
0.00134531
0.000411622
0.00194523
0.000674426
0.00219051
0.000860589
0.00192108
0.000855231
0.00131212
0.000661908
0.000697956
0.000398968
0.00028914
0.000187286
6.84698e-05
8.3963e-15
5.05867e-16
2.43848e-13
1.66477e-14
5.51541e-12
4.26677e-13
9.71544e-11
8.51669e-12
1.33283e-09
1.32394e-10
1.424e-08
1.60285e-09
1.18488e-07
1.51127e-08
7.67829e-07
1.10974e-07
3.87508e-06
6.34634e-07
1.52308e-05
2.82653e-06
4.66222e-05
9.80413e-06
0.000111145
2.64845e-05
0.000206353
5.57186e-05
0.000298373
9.12926e-05
0.000335996
0.000116492
0.000294669
0.000115767
0.000201262
8.95982e-05
0.000107057
5.40057e-05
4.43503e-05
2.53517e-05
9.26831e-06
1.003e-15
5.33291e-17
2.91296e-14
1.75502e-15
6.58859e-13
4.49808e-14
1.16059e-11
8.9784e-13
1.59217e-10
1.39571e-11
1.70108e-09
1.68974e-10
1.41543e-08
1.5932e-09
9.17232e-08
1.1699e-08
4.62909e-07
6.69039e-08
1.81944e-06
2.97976e-07
5.56939e-06
1.03356e-06
1.32771e-05
2.79203e-06
2.46505e-05
5.87392e-06
3.56429e-05
9.62417e-06
4.01373e-05
1.22808e-05
3.52006e-05
1.22043e-05
2.40424e-05
9.44555e-06
1.27888e-05
5.69335e-06
5.29799e-06
2.67261e-06
9.77076e-07
9.33133e-17
2.71004e-15
6.12962e-14
1.07974e-12
1.48125e-11
1.58258e-10
1.31683e-09
8.53336e-09
4.30662e-08
1.6927e-07
5.18142e-07
1.23522e-06
2.29333e-06
3.316e-06
3.73413e-06
3.27484e-06
2.23675e-06
1.18979e-06
4.92892e-07
)
;

boundaryField
{
    fixedWalls
    {
        type            calculated;
        value           nonuniform List<scalar> 
40
(
0
0
0
0
0
0
0
0
0
0
0
0
0
0
0
0
0
0
0
0
2
2
2
2
0
0
0
0
0
0
0
0
0
0
0
0
0
0
0
0
)
;
    }
    left
    {
        type            cyclic;
        value           nonuniform List<scalar> 
20
(
1
1
1
1
0
0
0
0
0
0
0
0
0
0
0
0
0
0
0
0
)
;
    }
    right
    {
        type            cyclic;
        value           nonuniform List<scalar> 
20
(
1
1
1
1
0
0
0
0
0
0
0
0
0
0
0
0
0
0
0
0
)
;
    }
    frontAndBack
    {
        type            empty;
        value           nonuniform 0();
    }
}


// ************************************************************************* //
