/*--------------------------------*- C++ -*----------------------------------*\
  =========                 |
  \\      /  F ield         | OpenFOAM: The Open Source CFD Toolbox
   \\    /   O peration     | Website:  https://openfoam.org
    \\  /    A nd           | Version:  dev
     \\/     M anipulation  |
\*---------------------------------------------------------------------------*/
FoamFile
{
    version     2.0;
    format      ascii;
    class       volScalarField;
    location    "0";
    object      T_analytic;
}
// * * * * * * * * * * * * * * * * * * * * * * * * * * * * * * * * * * * * * //

dimensions      [0 0 0 0 0 0 0];

internalField   nonuniform List<scalar> 
400
(
4.86198e-17
1.61007e-15
4.15242e-14
8.34036e-13
1.30465e-11
1.58939e-10
1.50797e-09
1.11425e-08
6.41206e-08
2.87369e-07
1.00302e-06
2.72648e-06
5.77195e-06
9.51634e-06
1.22192e-05
1.22192e-05
9.51634e-06
5.77195e-06
2.72648e-06
1.00302e-06
4.61292e-16
1.52759e-14
3.93971e-13
7.91311e-12
1.23782e-10
1.50797e-09
1.43072e-08
1.05717e-07
6.08359e-07
2.72648e-06
9.51634e-06
2.58681e-05
5.47628e-05
9.02885e-05
0.000115933
0.000115933
9.02885e-05
5.47628e-05
2.58681e-05
9.51634e-06
3.40851e-15
1.12874e-13
2.91107e-12
5.84704e-11
9.14631e-10
1.11425e-08
1.05717e-07
7.81149e-07
4.4952e-06
2.01461e-05
7.03168e-05
0.000191141
0.000404645
0.000667147
0.000856634
0.000856634
0.000667147
0.000404645
0.000191141
7.03168e-05
1.96146e-14
6.49548e-13
1.67521e-11
3.36474e-10
5.26334e-09
6.41206e-08
6.08359e-07
4.4952e-06
2.58681e-05
0.000115933
0.000404645
0.00109994
0.00232857
0.00383917
0.00492959
0.00492959
0.00383917
0.00232857
0.00109994
0.000404645
8.79067e-14
2.91107e-12
7.50775e-11
1.50797e-09
2.35887e-08
2.87369e-07
2.72648e-06
2.01461e-05
0.000115933
0.000519575
0.00181349
0.00492959
0.0104359
0.017206
0.0220929
0.0220929
0.017206
0.0104359
0.00492959
0.00181349
3.06825e-13
1.01606e-11
2.62046e-10
5.26334e-09
8.23325e-08
1.00302e-06
9.51634e-06
7.03168e-05
0.000404645
0.00181349
0.00632972
0.017206
0.036425
0.0600547
0.0771117
0.0771117
0.0600547
0.036425
0.017206
0.00632972
8.34036e-13
2.76195e-11
7.12316e-10
1.43072e-08
2.23803e-07
2.72648e-06
2.58681e-05
0.000191141
0.00109994
0.00492959
0.017206
0.0467706
0.0990134
0.163246
0.209611
0.209611
0.163246
0.0990134
0.0467706
0.017206
1.76565e-12
5.84704e-11
1.50797e-09
3.02884e-08
4.73791e-07
5.77195e-06
5.47628e-05
0.000404645
0.00232857
0.0104359
0.036425
0.0990134
0.209611
0.345591
0.443747
0.443747
0.345591
0.209611
0.0990134
0.036425
2.91107e-12
9.64014e-11
2.48623e-09
4.99372e-08
7.81149e-07
9.51634e-06
9.02885e-05
0.000667147
0.00383917
0.017206
0.0600547
0.163246
0.345591
0.569783
0.731616
0.731616
0.569783
0.345591
0.163246
0.0600547
3.73789e-12
1.23782e-10
3.19238e-09
6.41206e-08
1.00302e-06
1.22192e-05
0.000115933
0.000856634
0.00492959
0.0220929
0.0771117
0.209611
0.443747
0.731616
0.939413
0.939413
0.731616
0.443747
0.209611
0.0771117
3.73789e-12
1.23782e-10
3.19238e-09
6.41206e-08
1.00302e-06
1.22192e-05
0.000115933
0.000856634
0.00492959
0.0220929
0.0771117
0.209611
0.443747
0.731616
0.939413
0.939413
0.731616
0.443747
0.209611
0.0771117
2.91107e-12
9.64014e-11
2.48623e-09
4.99372e-08
7.81149e-07
9.51634e-06
9.02885e-05
0.000667147
0.00383917
0.017206
0.0600547
0.163246
0.345591
0.569783
0.731616
0.731616
0.569783
0.345591
0.163246
0.0600547
1.76565e-12
5.84704e-11
1.50797e-09
3.02884e-08
4.73791e-07
5.77195e-06
5.47628e-05
0.000404645
0.00232857
0.0104359
0.036425
0.0990134
0.209611
0.345591
0.443747
0.443747
0.345591
0.209611
0.0990134
0.036425
8.34036e-13
2.76195e-11
7.12316e-10
1.43072e-08
2.23803e-07
2.72648e-06
2.58681e-05
0.000191141
0.00109994
0.00492959
0.017206
0.0467706
0.0990134
0.163246
0.209611
0.209611
0.163246
0.0990134
0.0467706
0.017206
3.06825e-13
1.01606e-11
2.62046e-10
5.26334e-09
8.23325e-08
1.00302e-06
9.51634e-06
7.03168e-05
0.000404645
0.00181349
0.00632972
0.017206
0.036425
0.0600547
0.0771117
0.0771117
0.0600547
0.036425
0.017206
0.00632972
8.79067e-14
2.91107e-12
7.50775e-11
1.50797e-09
2.35887e-08
2.87369e-07
2.72648e-06
2.01461e-05
0.000115933
0.000519575
0.00181349
0.00492959
0.0104359
0.017206
0.0220929
0.0220929
0.017206
0.0104359
0.00492959
0.00181349
1.96146e-14
6.49548e-13
1.67521e-11
3.36474e-10
5.26334e-09
6.41206e-08
6.08359e-07
4.4952e-06
2.58681e-05
0.000115933
0.000404645
0.00109994
0.00232857
0.00383917
0.00492959
0.00492959
0.00383917
0.00232857
0.00109994
0.000404645
3.40851e-15
1.12874e-13
2.91107e-12
5.84704e-11
9.14631e-10
1.11425e-08
1.05717e-07
7.81149e-07
4.4952e-06
2.01461e-05
7.03168e-05
0.000191141
0.000404645
0.000667147
0.000856634
0.000856634
0.000667147
0.000404645
0.000191141
7.03168e-05
4.61292e-16
1.52759e-14
3.93971e-13
7.91311e-12
1.23782e-10
1.50797e-09
1.43072e-08
1.05717e-07
6.08359e-07
2.72648e-06
9.51634e-06
2.58681e-05
5.47628e-05
9.02885e-05
0.000115933
0.000115933
9.02885e-05
5.47628e-05
2.58681e-05
9.51634e-06
4.86198e-17
1.61007e-15
4.15242e-14
8.34036e-13
1.30465e-11
1.58939e-10
1.50797e-09
1.11425e-08
6.41206e-08
2.87369e-07
1.00302e-06
2.72648e-06
5.77195e-06
9.51634e-06
1.22192e-05
1.22192e-05
9.51634e-06
5.77195e-06
2.72648e-06
1.00302e-06
)
;

boundaryField
{
    fixedWalls
    {
        type            zeroGradient;
    }
    left
    {
        type            cyclic;
    }
    right
    {
        type            cyclic;
    }
    frontAndBack
    {
        type            empty;
    }
}


// ************************************************************************* //
