/*--------------------------------*- C++ -*----------------------------------*\
  =========                 |
  \\      /  F ield         | OpenFOAM: The Open Source CFD Toolbox
   \\    /   O peration     | Website:  https://openfoam.org
    \\  /    A nd           | Version:  dev
     \\/     M anipulation  |
\*---------------------------------------------------------------------------*/
FoamFile
{
    version     2.0;
    format      ascii;
    class       surfaceScalarField;
    location    "0";
    object      T_analyticf_analytic;
}
// * * * * * * * * * * * * * * * * * * * * * * * * * * * * * * * * * * * * * //

dimensions      [0 0 0 0 0 0 0];

internalField   nonuniform List<scalar> 
760
(
2.88669e-16
1.54514e-16
8.43615e-15
5.11679e-15
1.92006e-13
1.31964e-13
3.40339e-12
2.65056e-12
4.69823e-11
4.14617e-11
5.05107e-10
5.05107e-10
4.22921e-09
4.79233e-09
2.75779e-08
3.54108e-08
1.40052e-07
2.03775e-07
5.53918e-07
9.13256e-07
1.70619e-06
3.18758e-06
4.09293e-06
8.66473e-06
7.6466e-06
1.83432e-05
1.11257e-05
3.02429e-05
1.26071e-05
3.88326e-05
1.11257e-05
3.88326e-05
7.6466e-06
3.02429e-05
4.09293e-06
1.83432e-05
1.70619e-06
8.66473e-06
3.18758e-06
2.73882e-15
1.29373e-15
8.004e-14
4.28423e-14
1.8217e-12
1.10492e-12
3.22904e-11
2.21929e-11
4.45756e-10
3.47155e-10
4.79233e-09
4.22921e-09
4.01257e-08
4.01257e-08
2.61652e-07
2.96491e-07
1.32878e-06
1.70619e-06
5.25542e-06
7.6466e-06
1.61878e-05
2.66892e-05
3.88326e-05
7.25489e-05
7.25489e-05
0.000153586
0.000105558
0.00025322
0.000119613
0.000325142
0.000105558
0.000325142
7.25489e-05
0.00025322
3.88326e-05
0.000153586
1.61878e-05
7.25489e-05
2.66892e-05
2.02373e-14
8.43615e-15
5.9142e-13
2.79367e-13
1.34607e-11
7.20497e-12
2.38596e-10
1.44716e-10
3.29371e-09
2.26373e-09
3.54108e-08
2.75779e-08
2.96491e-07
2.61652e-07
1.93336e-06
1.93336e-06
9.81842e-06
1.11257e-05
3.88326e-05
4.98621e-05
0.000119613
0.000174036
0.000286936
0.000473078
0.000536068
0.00100151
0.000779974
0.0016512
0.000883826
0.00212019
0.000779974
0.00212019
0.000536068
0.0016512
0.000286936
0.00100151
0.000119613
0.000473078
0.000174036
1.16457e-13
4.28423e-14
3.40339e-12
1.41874e-12
7.74607e-11
3.65899e-11
1.37302e-09
7.34927e-10
1.8954e-08
1.14962e-08
2.03775e-07
1.40052e-07
1.70619e-06
1.32878e-06
1.11257e-05
9.81842e-06
5.65011e-05
5.65011e-05
0.000223466
0.00025322
0.000688325
0.000883826
0.0016512
0.00240249
0.00308486
0.00508607
0.00448844
0.00838551
0.00508607
0.0107672
0.00448844
0.0107672
0.00308486
0.00838551
0.0016512
0.00508607
0.000688325
0.00240249
0.000883826
5.21926e-13
1.69445e-13
1.52529e-11
5.61124e-12
3.47155e-10
1.44716e-10
6.15347e-09
2.90669e-09
8.4946e-08
4.54683e-08
9.13256e-07
5.53918e-07
7.6466e-06
5.25542e-06
4.98621e-05
3.88326e-05
0.00025322
0.000223466
0.00100151
0.00100151
0.00308486
0.0034956
0.00740019
0.00950203
0.0138254
0.0201158
0.0201158
0.0331653
0.0227942
0.0425851
0.0201158
0.0425851
0.0138254
0.0331653
0.00740019
0.0201158
0.00308486
0.00950203
0.0034956
1.8217e-12
5.21926e-13
5.32379e-11
1.72838e-11
1.21169e-09
4.45756e-10
2.14777e-08
8.95324e-09
2.96491e-07
1.40052e-07
3.18758e-06
1.70619e-06
2.66892e-05
1.61878e-05
0.000174036
0.000119613
0.000883826
0.000688325
0.0034956
0.00308486
0.0107672
0.0107672
0.0258292
0.0292683
0.0482553
0.061961
0.070211
0.102156
0.0795595
0.131171
0.070211
0.131171
0.0482553
0.102156
0.0258292
0.061961
0.0107672
0.0292683
0.0107672
4.9519e-12
1.25204e-12
1.44716e-10
4.14617e-11
3.29371e-09
1.06931e-09
5.83825e-08
2.14777e-08
8.05945e-07
3.35968e-07
8.66473e-06
4.09293e-06
7.25489e-05
3.88326e-05
0.000473078
0.000286936
0.00240249
0.0016512
0.00950203
0.00740019
0.0292683
0.0258292
0.070211
0.070211
0.131171
0.148637
0.190853
0.245061
0.216265
0.314664
0.190853
0.314664
0.131171
0.245061
0.070211
0.148637
0.0292683
0.070211
0.0258292
1.04832e-11
2.33911e-12
3.06363e-10
7.74607e-11
6.97279e-09
1.99774e-09
1.23596e-07
4.01257e-08
1.70619e-06
6.27671e-07
1.83432e-05
7.6466e-06
0.000153586
7.25489e-05
0.00100151
0.000536068
0.00508607
0.00308486
0.0201158
0.0138254
0.061961
0.0482553
0.148637
0.131171
0.27769
0.27769
0.404037
0.457833
0.457833
0.58787
0.404037
0.58787
0.27769
0.457833
0.148637
0.27769
0.061961
0.131171
0.0482553
1.72838e-11
3.40339e-12
5.05107e-10
1.12705e-10
1.14962e-08
2.90669e-09
2.03775e-07
5.83825e-08
2.81303e-06
9.13256e-07
3.02429e-05
1.11257e-05
0.00025322
0.000105558
0.0016512
0.000779974
0.00838551
0.00448844
0.0331653
0.0201158
0.102156
0.070211
0.245061
0.190853
0.457833
0.404037
0.666144
0.666144
0.75484
0.855345
0.666144
0.855345
0.457833
0.666144
0.245061
0.404037
0.102156
0.190853
0.070211
2.21929e-11
3.85654e-12
6.48571e-10
1.27711e-10
1.47614e-08
3.29371e-09
2.61652e-07
6.6156e-08
3.612e-06
1.03485e-06
3.88326e-05
1.26071e-05
0.000325142
0.000119613
0.00212019
0.000883826
0.0107672
0.00508607
0.0425851
0.0227942
0.131171
0.0795595
0.314664
0.216265
0.58787
0.457833
0.855345
0.75484
0.969233
0.969233
0.855345
0.969233
0.58787
0.75484
0.314664
0.457833
0.131171
0.216265
0.0795595
2.21929e-11
3.40339e-12
6.48571e-10
1.12705e-10
1.47614e-08
2.90669e-09
2.61652e-07
5.83825e-08
3.612e-06
9.13256e-07
3.88326e-05
1.11257e-05
0.000325142
0.000105558
0.00212019
0.000779974
0.0107672
0.00448844
0.0425851
0.0201158
0.131171
0.070211
0.314664
0.190853
0.58787
0.404037
0.855345
0.666144
0.969233
0.855345
0.855345
0.855345
0.58787
0.666144
0.314664
0.404037
0.131171
0.190853
0.070211
1.72838e-11
2.33911e-12
5.05107e-10
7.74607e-11
1.14962e-08
1.99774e-09
2.03775e-07
4.01257e-08
2.81303e-06
6.27671e-07
3.02429e-05
7.6466e-06
0.00025322
7.25489e-05
0.0016512
0.000536068
0.00838551
0.00308486
0.0331653
0.0138254
0.102156
0.0482553
0.245061
0.131171
0.457833
0.27769
0.666144
0.457833
0.75484
0.58787
0.666144
0.58787
0.457833
0.457833
0.245061
0.27769
0.102156
0.131171
0.0482553
1.04832e-11
1.25204e-12
3.06363e-10
4.14617e-11
6.97279e-09
1.06931e-09
1.23596e-07
2.14777e-08
1.70619e-06
3.35968e-07
1.83432e-05
4.09293e-06
0.000153586
3.88326e-05
0.00100151
0.000286936
0.00508607
0.0016512
0.0201158
0.00740019
0.061961
0.0258292
0.148637
0.070211
0.27769
0.148637
0.404037
0.245061
0.457833
0.314664
0.404037
0.314664
0.27769
0.245061
0.148637
0.148637
0.061961
0.070211
0.0258292
4.9519e-12
5.21926e-13
1.44716e-10
1.72838e-11
3.29371e-09
4.45756e-10
5.83825e-08
8.95324e-09
8.05945e-07
1.40052e-07
8.66473e-06
1.70619e-06
7.25489e-05
1.61878e-05
0.000473078
0.000119613
0.00240249
0.000688325
0.00950203
0.00308486
0.0292683
0.0107672
0.070211
0.0292683
0.131171
0.061961
0.190853
0.102156
0.216265
0.131171
0.190853
0.131171
0.131171
0.102156
0.070211
0.061961
0.0292683
0.0292683
0.0107672
1.8217e-12
1.69445e-13
5.32379e-11
5.61124e-12
1.21169e-09
1.44716e-10
2.14777e-08
2.90669e-09
2.96491e-07
4.54683e-08
3.18758e-06
5.53918e-07
2.66892e-05
5.25542e-06
0.000174036
3.88326e-05
0.000883826
0.000223466
0.0034956
0.00100151
0.0107672
0.0034956
0.0258292
0.00950203
0.0482553
0.0201158
0.070211
0.0331653
0.0795595
0.0425851
0.070211
0.0425851
0.0482553
0.0331653
0.0258292
0.0201158
0.0107672
0.00950203
0.0034956
5.21926e-13
4.28423e-14
1.52529e-11
1.41874e-12
3.47155e-10
3.65899e-11
6.15347e-09
7.34927e-10
8.4946e-08
1.14962e-08
9.13256e-07
1.40052e-07
7.6466e-06
1.32878e-06
4.98621e-05
9.81842e-06
0.00025322
5.65011e-05
0.00100151
0.00025322
0.00308486
0.000883826
0.00740019
0.00240249
0.0138254
0.00508607
0.0201158
0.00838551
0.0227942
0.0107672
0.0201158
0.0107672
0.0138254
0.00838551
0.00740019
0.00508607
0.00308486
0.00240249
0.000883826
1.16457e-13
8.43615e-15
3.40339e-12
2.79367e-13
7.74607e-11
7.20497e-12
1.37302e-09
1.44716e-10
1.8954e-08
2.26373e-09
2.03775e-07
2.75779e-08
1.70619e-06
2.61652e-07
1.11257e-05
1.93336e-06
5.65011e-05
1.11257e-05
0.000223466
4.98621e-05
0.000688325
0.000174036
0.0016512
0.000473078
0.00308486
0.00100151
0.00448844
0.0016512
0.00508607
0.00212019
0.00448844
0.00212019
0.00308486
0.0016512
0.0016512
0.00100151
0.000688325
0.000473078
0.000174036
2.02373e-14
1.29373e-15
5.9142e-13
4.28423e-14
1.34607e-11
1.10492e-12
2.38596e-10
2.21929e-11
3.29371e-09
3.47155e-10
3.54108e-08
4.22921e-09
2.96491e-07
4.01257e-08
1.93336e-06
2.96491e-07
9.81842e-06
1.70619e-06
3.88326e-05
7.6466e-06
0.000119613
2.66892e-05
0.000286936
7.25489e-05
0.000536068
0.000153586
0.000779974
0.00025322
0.000883826
0.000325142
0.000779974
0.000325142
0.000536068
0.00025322
0.000286936
0.000153586
0.000119613
7.25489e-05
2.66892e-05
2.73882e-15
1.54514e-16
8.004e-14
5.11679e-15
1.8217e-12
1.31964e-13
3.22904e-11
2.65056e-12
4.45756e-10
4.14617e-11
4.79233e-09
5.05107e-10
4.01257e-08
4.79233e-09
2.61652e-07
3.54108e-08
1.32878e-06
2.03775e-07
5.25542e-06
9.13256e-07
1.61878e-05
3.18758e-06
3.88326e-05
8.66473e-06
7.25489e-05
1.83432e-05
0.000105558
3.02429e-05
0.000119613
3.88326e-05
0.000105558
3.88326e-05
7.25489e-05
3.02429e-05
3.88326e-05
1.83432e-05
1.61878e-05
8.66473e-06
3.18758e-06
2.88669e-16
8.43615e-15
1.92006e-13
3.40339e-12
4.69823e-11
5.05107e-10
4.22921e-09
2.75779e-08
1.40052e-07
5.53918e-07
1.70619e-06
4.09293e-06
7.6466e-06
1.11257e-05
1.26071e-05
1.11257e-05
7.6466e-06
4.09293e-06
1.70619e-06
)
;

boundaryField
{
    fixedWalls
    {
        type            calculated;
        value           nonuniform List<scalar> 
40
(
0
0
0
0
0
0
0
0
0
0
0
0
0
0
0
0
0
0
0
0
2
2
2
2
0
0
0
0
0
0
0
0
0
0
0
0
0
0
0
0
)
;
    }
    left
    {
        type            cyclic;
        value           nonuniform List<scalar> 
20
(
1
1
1
1
0
0
0
0
0
0
0
0
0
0
0
0
0
0
0
0
)
;
    }
    right
    {
        type            cyclic;
        value           nonuniform List<scalar> 
20
(
1
1
1
1
0
0
0
0
0
0
0
0
0
0
0
0
0
0
0
0
)
;
    }
    frontAndBack
    {
        type            empty;
        value           nonuniform 0();
    }
}


// ************************************************************************* //
