/*--------------------------------*- C++ -*----------------------------------*\
  =========                 |
  \\      /  F ield         | OpenFOAM: The Open Source CFD Toolbox
   \\    /   O peration     | Website:  https://openfoam.org
    \\  /    A nd           | Version:  dev
     \\/     M anipulation  |
\*---------------------------------------------------------------------------*/
FoamFile
{
    version     2.0;
    format      ascii;
    class       surfaceVectorField;
    location    "0";
    object      Uf;
}
// * * * * * * * * * * * * * * * * * * * * * * * * * * * * * * * * * * * * * //

dimensions      [0 1 -1 0 0 0 0];

internalField   nonuniform List<vector> 
760
(
(0.95 -0.45 0)
(0.9 -0.95 0)
(0.95 -0.4 0)
(0.9 -0.85 0)
(0.95 -0.35 0)
(0.9 -0.75 0)
(0.95 -0.3 0)
(0.9 -0.65 0)
(0.95 -0.25 0)
(0.9 -0.55 0)
(0.95 -0.2 0)
(0.9 -0.45 0)
(0.95 -0.15 0)
(0.9 -0.35 0)
(0.95 -0.1 0)
(0.9 -0.25 0)
(0.95 -0.05 0)
(0.9 -0.15 0)
(0.95 -4.16334e-17 0)
(0.9 -0.05 0)
(0.95 0.05 0)
(0.9 0.05 0)
(0.95 0.1 0)
(0.9 0.15 0)
(0.95 0.15 0)
(0.9 0.25 0)
(0.95 0.2 0)
(0.9 0.35 0)
(0.95 0.25 0)
(0.9 0.45 0)
(0.95 0.3 0)
(0.9 0.55 0)
(0.95 0.35 0)
(0.9 0.65 0)
(0.95 0.4 0)
(0.9 0.75 0)
(0.95 0.45 0)
(0.9 0.85 0)
(0.9 0.95 0)
(0.85 -0.9 0)
(0.8 -0.95 0)
(0.85 -0.8 0)
(0.8 -0.85 0)
(0.85 -0.7 0)
(0.8 -0.75 0)
(0.85 -0.6 0)
(0.8 -0.65 0)
(0.85 -0.5 0)
(0.8 -0.55 0)
(0.85 -0.4 0)
(0.8 -0.45 0)
(0.85 -0.3 0)
(0.8 -0.35 0)
(0.85 -0.2 0)
(0.8 -0.25 0)
(0.85 -0.1 0)
(0.8 -0.15 0)
(0.85 2.77556e-17 0)
(0.8 -0.05 0)
(0.85 0.1 0)
(0.8 0.05 0)
(0.85 0.2 0)
(0.8 0.15 0)
(0.85 0.3 0)
(0.8 0.25 0)
(0.85 0.4 0)
(0.8 0.35 0)
(0.85 0.5 0)
(0.8 0.45 0)
(0.85 0.6 0)
(0.8 0.55 0)
(0.85 0.7 0)
(0.8 0.65 0)
(0.85 0.8 0)
(0.8 0.75 0)
(0.85 0.9 0)
(0.8 0.85 0)
(0.8 0.95 0)
(0.75 -0.9 0)
(0.7 -0.95 0)
(0.75 -0.8 0)
(0.7 -0.85 0)
(0.75 -0.7 0)
(0.7 -0.75 0)
(0.75 -0.6 0)
(0.7 -0.65 0)
(0.75 -0.5 0)
(0.7 -0.55 0)
(0.75 -0.4 0)
(0.7 -0.45 0)
(0.75 -0.3 0)
(0.7 -0.35 0)
(0.75 -0.2 0)
(0.7 -0.25 0)
(0.75 -0.1 0)
(0.7 -0.15 0)
(0.75 2.77556e-17 0)
(0.7 -0.05 0)
(0.75 0.1 0)
(0.7 0.05 0)
(0.75 0.2 0)
(0.7 0.15 0)
(0.75 0.3 0)
(0.7 0.25 0)
(0.75 0.4 0)
(0.7 0.35 0)
(0.75 0.5 0)
(0.7 0.45 0)
(0.75 0.6 0)
(0.7 0.55 0)
(0.75 0.7 0)
(0.7 0.65 0)
(0.75 0.8 0)
(0.7 0.75 0)
(0.75 0.9 0)
(0.7 0.85 0)
(0.7 0.95 0)
(0.65 -0.9 0)
(0.6 -0.95 0)
(0.65 -0.8 0)
(0.6 -0.85 0)
(0.65 -0.7 0)
(0.6 -0.75 0)
(0.65 -0.6 0)
(0.6 -0.65 0)
(0.65 -0.5 0)
(0.6 -0.55 0)
(0.65 -0.4 0)
(0.6 -0.45 0)
(0.65 -0.3 0)
(0.6 -0.35 0)
(0.65 -0.2 0)
(0.6 -0.25 0)
(0.65 -0.1 0)
(0.6 -0.15 0)
(0.65 -2.08167e-16 0)
(0.6 -0.05 0)
(0.65 0.1 0)
(0.6 0.05 0)
(0.65 0.2 0)
(0.6 0.15 0)
(0.65 0.3 0)
(0.6 0.25 0)
(0.65 0.4 0)
(0.6 0.35 0)
(0.65 0.5 0)
(0.6 0.45 0)
(0.65 0.6 0)
(0.6 0.55 0)
(0.65 0.7 0)
(0.6 0.65 0)
(0.65 0.8 0)
(0.6 0.75 0)
(0.65 0.9 0)
(0.6 0.85 0)
(0.6 0.95 0)
(0.55 -0.9 0)
(0.5 -0.95 0)
(0.55 -0.8 0)
(0.5 -0.85 0)
(0.55 -0.7 0)
(0.5 -0.75 0)
(0.55 -0.6 0)
(0.5 -0.65 0)
(0.55 -0.5 0)
(0.5 -0.55 0)
(0.55 -0.4 0)
(0.5 -0.45 0)
(0.55 -0.3 0)
(0.5 -0.35 0)
(0.55 -0.2 0)
(0.5 -0.25 0)
(0.55 -0.1 0)
(0.5 -0.15 0)
(0.55 2.77556e-17 0)
(0.5 -0.05 0)
(0.55 0.1 0)
(0.5 0.05 0)
(0.55 0.2 0)
(0.5 0.15 0)
(0.55 0.3 0)
(0.5 0.25 0)
(0.55 0.4 0)
(0.5 0.35 0)
(0.55 0.5 0)
(0.5 0.45 0)
(0.55 0.6 0)
(0.5 0.55 0)
(0.55 0.7 0)
(0.5 0.65 0)
(0.55 0.8 0)
(0.5 0.75 0)
(0.55 0.9 0)
(0.5 0.85 0)
(0.5 0.95 0)
(0.45 -0.9 0)
(0.4 -0.95 0)
(0.45 -0.8 0)
(0.4 -0.85 0)
(0.45 -0.7 0)
(0.4 -0.75 0)
(0.45 -0.6 0)
(0.4 -0.65 0)
(0.45 -0.5 0)
(0.4 -0.55 0)
(0.45 -0.4 0)
(0.4 -0.45 0)
(0.45 -0.3 0)
(0.4 -0.35 0)
(0.45 -0.2 0)
(0.4 -0.25 0)
(0.45 -0.1 0)
(0.4 -0.15 0)
(0.45 8.32667e-17 0)
(0.4 -0.05 0)
(0.45 0.1 0)
(0.4 0.05 0)
(0.45 0.2 0)
(0.4 0.15 0)
(0.45 0.3 0)
(0.4 0.25 0)
(0.45 0.4 0)
(0.4 0.35 0)
(0.45 0.5 0)
(0.4 0.45 0)
(0.45 0.6 0)
(0.4 0.55 0)
(0.45 0.7 0)
(0.4 0.65 0)
(0.45 0.8 0)
(0.4 0.75 0)
(0.45 0.9 0)
(0.4 0.85 0)
(0.4 0.95 0)
(0.35 -0.9 0)
(0.3 -0.95 0)
(0.35 -0.8 0)
(0.3 -0.85 0)
(0.35 -0.7 0)
(0.3 -0.75 0)
(0.35 -0.6 0)
(0.3 -0.65 0)
(0.35 -0.5 0)
(0.3 -0.55 0)
(0.35 -0.4 0)
(0.3 -0.45 0)
(0.35 -0.3 0)
(0.3 -0.35 0)
(0.35 -0.2 0)
(0.3 -0.25 0)
(0.35 -0.1 0)
(0.3 -0.15 0)
(0.35 1.249e-16 0)
(0.3 -0.05 0)
(0.35 0.1 0)
(0.3 0.05 0)
(0.35 0.2 0)
(0.3 0.15 0)
(0.35 0.3 0)
(0.3 0.25 0)
(0.35 0.4 0)
(0.3 0.35 0)
(0.35 0.5 0)
(0.3 0.45 0)
(0.35 0.6 0)
(0.3 0.55 0)
(0.35 0.7 0)
(0.3 0.65 0)
(0.35 0.8 0)
(0.3 0.75 0)
(0.35 0.9 0)
(0.3 0.85 0)
(0.3 0.95 0)
(0.25 -0.9 0)
(0.2 -0.95 0)
(0.25 -0.8 0)
(0.2 -0.85 0)
(0.25 -0.7 0)
(0.2 -0.75 0)
(0.25 -0.6 0)
(0.2 -0.65 0)
(0.25 -0.5 0)
(0.2 -0.55 0)
(0.25 -0.4 0)
(0.2 -0.45 0)
(0.25 -0.3 0)
(0.2 -0.35 0)
(0.25 -0.2 0)
(0.2 -0.25 0)
(0.25 -0.1 0)
(0.2 -0.15 0)
(0.25 4.85723e-17 0)
(0.2 -0.05 0)
(0.25 0.1 0)
(0.2 0.05 0)
(0.25 0.2 0)
(0.2 0.15 0)
(0.25 0.3 0)
(0.2 0.25 0)
(0.25 0.4 0)
(0.2 0.35 0)
(0.25 0.5 0)
(0.2 0.45 0)
(0.25 0.6 0)
(0.2 0.55 0)
(0.25 0.7 0)
(0.2 0.65 0)
(0.25 0.8 0)
(0.2 0.75 0)
(0.25 0.9 0)
(0.2 0.85 0)
(0.2 0.95 0)
(0.15 -0.9 0)
(0.1 -0.95 0)
(0.15 -0.8 0)
(0.1 -0.85 0)
(0.15 -0.7 0)
(0.1 -0.75 0)
(0.15 -0.6 0)
(0.1 -0.65 0)
(0.15 -0.5 0)
(0.1 -0.55 0)
(0.15 -0.4 0)
(0.1 -0.45 0)
(0.15 -0.3 0)
(0.1 -0.35 0)
(0.15 -0.2 0)
(0.1 -0.25 0)
(0.15 -0.1 0)
(0.1 -0.15 0)
(0.15 9.02056e-17 0)
(0.1 -0.05 0)
(0.15 0.1 0)
(0.1 0.05 0)
(0.15 0.2 0)
(0.1 0.15 0)
(0.15 0.3 0)
(0.1 0.25 0)
(0.15 0.4 0)
(0.1 0.35 0)
(0.15 0.5 0)
(0.1 0.45 0)
(0.15 0.6 0)
(0.1 0.55 0)
(0.15 0.7 0)
(0.1 0.65 0)
(0.15 0.8 0)
(0.1 0.75 0)
(0.15 0.9 0)
(0.1 0.85 0)
(0.1 0.95 0)
(0.05 -0.9 0)
(8.32667e-17 -0.95 0)
(0.05 -0.8 0)
(-2.77556e-17 -0.85 0)
(0.05 -0.7 0)
(2.77556e-17 -0.75 0)
(0.05 -0.6 0)
(9.71445e-17 -0.65 0)
(0.05 -0.5 0)
(2.77556e-17 -0.55 0)
(0.05 -0.4 0)
(-8.32667e-17 -0.45 0)
(0.05 -0.3 0)
(4.16334e-17 -0.35 0)
(0.05 -0.2 0)
(7.63278e-17 -0.25 0)
(0.05 -0.1 0)
(-9.02056e-17 -0.15 0)
(0.05 -2.77556e-17 0)
(8.32667e-17 -0.05 0)
(0.05 0.1 0)
(9.71445e-17 0.05 0)
(0.05 0.2 0)
(-3.46945e-17 0.15 0)
(0.05 0.3 0)
(7.63278e-17 0.25 0)
(0.05 0.4 0)
(-8.32667e-17 0.35 0)
(0.05 0.5 0)
(8.32667e-17 0.45 0)
(0.05 0.6 0)
(1.94289e-16 0.55 0)
(0.05 0.7 0)
(8.32667e-17 0.65 0)
(0.05 0.8 0)
(2.77556e-17 0.75 0)
(0.05 0.9 0)
(2.77556e-17 0.85 0)
(1.38778e-16 0.95 0)
(-0.05 -0.9 0)
(-0.1 -0.95 0)
(-0.05 -0.8 0)
(-0.1 -0.85 0)
(-0.05 -0.7 0)
(-0.1 -0.75 0)
(-0.05 -0.6 0)
(-0.1 -0.65 0)
(-0.05 -0.5 0)
(-0.1 -0.55 0)
(-0.05 -0.4 0)
(-0.1 -0.45 0)
(-0.05 -0.3 0)
(-0.1 -0.35 0)
(-0.05 -0.2 0)
(-0.1 -0.25 0)
(-0.05 -0.1 0)
(-0.1 -0.15 0)
(-0.05 8.32667e-17 0)
(-0.1 -0.05 0)
(-0.05 0.1 0)
(-0.1 0.05 0)
(-0.05 0.2 0)
(-0.1 0.15 0)
(-0.05 0.3 0)
(-0.1 0.25 0)
(-0.05 0.4 0)
(-0.1 0.35 0)
(-0.05 0.5 0)
(-0.1 0.45 0)
(-0.05 0.6 0)
(-0.1 0.55 0)
(-0.05 0.7 0)
(-0.1 0.65 0)
(-0.05 0.8 0)
(-0.1 0.75 0)
(-0.05 0.9 0)
(-0.1 0.85 0)
(-0.1 0.95 0)
(-0.15 -0.9 0)
(-0.2 -0.95 0)
(-0.15 -0.8 0)
(-0.2 -0.85 0)
(-0.15 -0.7 0)
(-0.2 -0.75 0)
(-0.15 -0.6 0)
(-0.2 -0.65 0)
(-0.15 -0.5 0)
(-0.2 -0.55 0)
(-0.15 -0.4 0)
(-0.2 -0.45 0)
(-0.15 -0.3 0)
(-0.2 -0.35 0)
(-0.15 -0.2 0)
(-0.2 -0.25 0)
(-0.15 -0.1 0)
(-0.2 -0.15 0)
(-0.15 1.04083e-16 0)
(-0.2 -0.05 0)
(-0.15 0.1 0)
(-0.2 0.05 0)
(-0.15 0.2 0)
(-0.2 0.15 0)
(-0.15 0.3 0)
(-0.2 0.25 0)
(-0.15 0.4 0)
(-0.2 0.35 0)
(-0.15 0.5 0)
(-0.2 0.45 0)
(-0.15 0.6 0)
(-0.2 0.55 0)
(-0.15 0.7 0)
(-0.2 0.65 0)
(-0.15 0.8 0)
(-0.2 0.75 0)
(-0.15 0.9 0)
(-0.2 0.85 0)
(-0.2 0.95 0)
(-0.25 -0.9 0)
(-0.3 -0.95 0)
(-0.25 -0.8 0)
(-0.3 -0.85 0)
(-0.25 -0.7 0)
(-0.3 -0.75 0)
(-0.25 -0.6 0)
(-0.3 -0.65 0)
(-0.25 -0.5 0)
(-0.3 -0.55 0)
(-0.25 -0.4 0)
(-0.3 -0.45 0)
(-0.25 -0.3 0)
(-0.3 -0.35 0)
(-0.25 -0.2 0)
(-0.3 -0.25 0)
(-0.25 -0.1 0)
(-0.3 -0.15 0)
(-0.25 4.85723e-17 0)
(-0.3 -0.05 0)
(-0.25 0.1 0)
(-0.3 0.05 0)
(-0.25 0.2 0)
(-0.3 0.15 0)
(-0.25 0.3 0)
(-0.3 0.25 0)
(-0.25 0.4 0)
(-0.3 0.35 0)
(-0.25 0.5 0)
(-0.3 0.45 0)
(-0.25 0.6 0)
(-0.3 0.55 0)
(-0.25 0.7 0)
(-0.3 0.65 0)
(-0.25 0.8 0)
(-0.3 0.75 0)
(-0.25 0.9 0)
(-0.3 0.85 0)
(-0.3 0.95 0)
(-0.35 -0.9 0)
(-0.4 -0.95 0)
(-0.35 -0.8 0)
(-0.4 -0.85 0)
(-0.35 -0.7 0)
(-0.4 -0.75 0)
(-0.35 -0.6 0)
(-0.4 -0.65 0)
(-0.35 -0.5 0)
(-0.4 -0.55 0)
(-0.35 -0.4 0)
(-0.4 -0.45 0)
(-0.35 -0.3 0)
(-0.4 -0.35 0)
(-0.35 -0.2 0)
(-0.4 -0.25 0)
(-0.35 -0.1 0)
(-0.4 -0.15 0)
(-0.35 1.38778e-17 0)
(-0.4 -0.05 0)
(-0.35 0.1 0)
(-0.4 0.05 0)
(-0.35 0.2 0)
(-0.4 0.15 0)
(-0.35 0.3 0)
(-0.4 0.25 0)
(-0.35 0.4 0)
(-0.4 0.35 0)
(-0.35 0.5 0)
(-0.4 0.45 0)
(-0.35 0.6 0)
(-0.4 0.55 0)
(-0.35 0.7 0)
(-0.4 0.65 0)
(-0.35 0.8 0)
(-0.4 0.75 0)
(-0.35 0.9 0)
(-0.4 0.85 0)
(-0.4 0.95 0)
(-0.45 -0.9 0)
(-0.5 -0.95 0)
(-0.45 -0.8 0)
(-0.5 -0.85 0)
(-0.45 -0.7 0)
(-0.5 -0.75 0)
(-0.45 -0.6 0)
(-0.5 -0.65 0)
(-0.45 -0.5 0)
(-0.5 -0.55 0)
(-0.45 -0.4 0)
(-0.5 -0.45 0)
(-0.45 -0.3 0)
(-0.5 -0.35 0)
(-0.45 -0.2 0)
(-0.5 -0.25 0)
(-0.45 -0.1 0)
(-0.5 -0.15 0)
(-0.45 -2.77556e-17 0)
(-0.5 -0.05 0)
(-0.45 0.1 0)
(-0.5 0.05 0)
(-0.45 0.2 0)
(-0.5 0.15 0)
(-0.45 0.3 0)
(-0.5 0.25 0)
(-0.45 0.4 0)
(-0.5 0.35 0)
(-0.45 0.5 0)
(-0.5 0.45 0)
(-0.45 0.6 0)
(-0.5 0.55 0)
(-0.45 0.7 0)
(-0.5 0.65 0)
(-0.45 0.8 0)
(-0.5 0.75 0)
(-0.45 0.9 0)
(-0.5 0.85 0)
(-0.5 0.95 0)
(-0.55 -0.9 0)
(-0.6 -0.95 0)
(-0.55 -0.8 0)
(-0.6 -0.85 0)
(-0.55 -0.7 0)
(-0.6 -0.75 0)
(-0.55 -0.6 0)
(-0.6 -0.65 0)
(-0.55 -0.5 0)
(-0.6 -0.55 0)
(-0.55 -0.4 0)
(-0.6 -0.45 0)
(-0.55 -0.3 0)
(-0.6 -0.35 0)
(-0.55 -0.2 0)
(-0.6 -0.25 0)
(-0.55 -0.1 0)
(-0.6 -0.15 0)
(-0.55 -1.52656e-16 0)
(-0.6 -0.05 0)
(-0.55 0.1 0)
(-0.6 0.05 0)
(-0.55 0.2 0)
(-0.6 0.15 0)
(-0.55 0.3 0)
(-0.6 0.25 0)
(-0.55 0.4 0)
(-0.6 0.35 0)
(-0.55 0.5 0)
(-0.6 0.45 0)
(-0.55 0.6 0)
(-0.6 0.55 0)
(-0.55 0.7 0)
(-0.6 0.65 0)
(-0.55 0.8 0)
(-0.6 0.75 0)
(-0.55 0.9 0)
(-0.6 0.85 0)
(-0.6 0.95 0)
(-0.65 -0.9 0)
(-0.7 -0.95 0)
(-0.65 -0.8 0)
(-0.7 -0.85 0)
(-0.65 -0.7 0)
(-0.7 -0.75 0)
(-0.65 -0.6 0)
(-0.7 -0.65 0)
(-0.65 -0.5 0)
(-0.7 -0.55 0)
(-0.65 -0.4 0)
(-0.7 -0.45 0)
(-0.65 -0.3 0)
(-0.7 -0.35 0)
(-0.65 -0.2 0)
(-0.7 -0.25 0)
(-0.65 -0.1 0)
(-0.7 -0.15 0)
(-0.65 8.32667e-17 0)
(-0.7 -0.05 0)
(-0.65 0.1 0)
(-0.7 0.05 0)
(-0.65 0.2 0)
(-0.7 0.15 0)
(-0.65 0.3 0)
(-0.7 0.25 0)
(-0.65 0.4 0)
(-0.7 0.35 0)
(-0.65 0.5 0)
(-0.7 0.45 0)
(-0.65 0.6 0)
(-0.7 0.55 0)
(-0.65 0.7 0)
(-0.7 0.65 0)
(-0.65 0.8 0)
(-0.7 0.75 0)
(-0.65 0.9 0)
(-0.7 0.85 0)
(-0.7 0.95 0)
(-0.75 -0.9 0)
(-0.8 -0.95 0)
(-0.75 -0.8 0)
(-0.8 -0.85 0)
(-0.75 -0.7 0)
(-0.8 -0.75 0)
(-0.75 -0.6 0)
(-0.8 -0.65 0)
(-0.75 -0.5 0)
(-0.8 -0.55 0)
(-0.75 -0.4 0)
(-0.8 -0.45 0)
(-0.75 -0.3 0)
(-0.8 -0.35 0)
(-0.75 -0.2 0)
(-0.8 -0.25 0)
(-0.75 -0.1 0)
(-0.8 -0.15 0)
(-0.75 -2.77556e-17 0)
(-0.8 -0.05 0)
(-0.75 0.1 0)
(-0.8 0.05 0)
(-0.75 0.2 0)
(-0.8 0.15 0)
(-0.75 0.3 0)
(-0.8 0.25 0)
(-0.75 0.4 0)
(-0.8 0.35 0)
(-0.75 0.5 0)
(-0.8 0.45 0)
(-0.75 0.6 0)
(-0.8 0.55 0)
(-0.75 0.7 0)
(-0.8 0.65 0)
(-0.75 0.8 0)
(-0.8 0.75 0)
(-0.75 0.9 0)
(-0.8 0.85 0)
(-0.8 0.95 0)
(-0.85 -0.9 0)
(-0.9 -0.95 0)
(-0.85 -0.8 0)
(-0.9 -0.85 0)
(-0.85 -0.7 0)
(-0.9 -0.75 0)
(-0.85 -0.6 0)
(-0.9 -0.65 0)
(-0.85 -0.5 0)
(-0.9 -0.55 0)
(-0.85 -0.4 0)
(-0.9 -0.45 0)
(-0.85 -0.3 0)
(-0.9 -0.35 0)
(-0.85 -0.2 0)
(-0.9 -0.25 0)
(-0.85 -0.1 0)
(-0.9 -0.15 0)
(-0.85 8.32667e-17 0)
(-0.9 -0.05 0)
(-0.85 0.1 0)
(-0.9 0.05 0)
(-0.85 0.2 0)
(-0.9 0.15 0)
(-0.85 0.3 0)
(-0.9 0.25 0)
(-0.85 0.4 0)
(-0.9 0.35 0)
(-0.85 0.5 0)
(-0.9 0.45 0)
(-0.85 0.6 0)
(-0.9 0.55 0)
(-0.85 0.7 0)
(-0.9 0.65 0)
(-0.85 0.8 0)
(-0.9 0.75 0)
(-0.85 0.9 0)
(-0.9 0.85 0)
(-0.9 0.95 0)
(-0.95 -0.45 0)
(-0.95 -0.4 0)
(-0.95 -0.35 0)
(-0.95 -0.3 0)
(-0.95 -0.25 0)
(-0.95 -0.2 0)
(-0.95 -0.15 0)
(-0.95 -0.1 0)
(-0.95 -0.05 0)
(-0.95 -1.38778e-17 0)
(-0.95 0.05 0)
(-0.95 0.1 0)
(-0.95 0.15 0)
(-0.95 0.2 0)
(-0.95 0.25 0)
(-0.95 0.3 0)
(-0.95 0.35 0)
(-0.95 0.4 0)
(-0.95 0.45 0)
)
;

boundaryField
{
    fixedWalls
    {
        type            fixedValue;
        value           uniform (1 0 0);
    }
    left
    {
        type            cyclic;
        value           nonuniform List<vector> 
20
(
(0.95 9.71445e-16 0)
(0.85 -6.38378e-15 0)
(0.75 -1.9984e-15 0)
(0.65 -2.498e-15 0)
(0.55 1.60982e-15 0)
(0.45 1.9984e-15 0)
(0.35 -2.16493e-15 0)
(0.25 0 0)
(0.15 -2.16493e-15 0)
(0.05 1.9984e-15 0)
(-0.05 2.10942e-15 0)
(-0.15 -4.27436e-15 0)
(-0.25 0 0)
(-0.35 -2.16493e-15 0)
(-0.45 2.33147e-15 0)
(-0.55 2.10942e-15 0)
(-0.65 -2.16493e-15 0)
(-0.75 2.10942e-15 0)
(-0.85 -4.32987e-15 0)
(-0.95 1.05471e-15 0)
)
;
    }
    right
    {
        type            cyclic;
        value           nonuniform List<vector> 
20
(
(0.95 9.99201e-16 0)
(0.85 -6.38378e-15 0)
(0.75 -2.22045e-15 0)
(0.65 -2.498e-15 0)
(0.55 1.66533e-15 0)
(0.45 2.05391e-15 0)
(0.35 -2.16493e-15 0)
(0.25 0 0)
(0.15 -2.22045e-15 0)
(0.05 2.05391e-15 0)
(-0.05 2.10942e-15 0)
(-0.15 -4.27436e-15 0)
(-0.25 0 0)
(-0.35 -2.16493e-15 0)
(-0.45 2.10942e-15 0)
(-0.55 2.10942e-15 0)
(-0.65 -2.16493e-15 0)
(-0.75 2.10942e-15 0)
(-0.85 -4.32987e-15 0)
(-0.95 1.05471e-15 0)
)
;
    }
    frontAndBack
    {
        type            empty;
        value           nonuniform 0();
    }
}


// ************************************************************************* //
