/*--------------------------------*- C++ -*----------------------------------*\
  =========                 |
  \\      /  F ield         | OpenFOAM: The Open Source CFD Toolbox
   \\    /   O peration     | Website:  https://openfoam.org
    \\  /    A nd           | Version:  dev
     \\/     M anipulation  |
\*---------------------------------------------------------------------------*/
FoamFile
{
    version     2.0;
    format      ascii;
    class       volScalarField;
    location    "0.5";
    object      T;
}
// * * * * * * * * * * * * * * * * * * * * * * * * * * * * * * * * * * * * * //

dimensions      [0 0 0 0 0 0 0];

internalField   nonuniform List<scalar> 
400
(
-1.94108e-05
5.83765e-06
0.000485216
0.00170659
0.00323005
0.00412832
0.00385988
0.00270613
0.00139271
0.000467195
3.68591e-05
-6.67757e-05
-4.67803e-05
-1.57641e-05
-1.77643e-06
9.98773e-07
5.77704e-07
2.42619e-07
-6.86496e-07
4.05354e-06
-5.30662e-06
5.38733e-05
0.000387448
0.000957741
0.00136935
0.00130139
0.000829936
0.000280888
-8.56666e-05
-0.000214363
-0.000183393
-0.000103435
-3.94527e-05
-7.14414e-06
2.40041e-06
2.44647e-06
8.74636e-07
3.14199e-07
-9.20162e-07
3.16245e-06
-7.18227e-05
-0.000261025
-0.000158863
0.000289912
0.000628122
0.000536628
0.000150653
-0.000203528
-0.000340026
-0.000285479
-0.000159442
-5.57197e-05
-4.32534e-06
9.06234e-06
6.9902e-06
2.7955e-06
4.59602e-07
2.04357e-09
-7.39297e-07
4.45383e-06
-0.000353494
-0.00108858
-0.00123752
-0.00078378
-0.000368016
-0.00027682
-0.000343963
-0.000353141
-0.000255947
-0.000121414
-2.30249e-05
1.78744e-05
2.13827e-05
1.22654e-05
4.18906e-06
4.10047e-07
-4.66269e-07
-5.60262e-07
-6.21276e-07
2.07275e-05
-0.00100425
-0.00222626
-0.00206493
-0.00117539
-0.000519023
-0.00025985
-0.000169847
-9.48716e-05
-2.28203e-05
2.06097e-05
3.14069e-05
2.29843e-05
1.04321e-05
1.06019e-06
-3.00003e-06
-2.78738e-06
-6.31459e-07
-2.05717e-07
-1.11341e-06
7.29308e-05
-0.00197794
-0.00293465
-0.00184203
-0.000624993
-7.84673e-05
4.57291e-05
5.72422e-05
5.78262e-05
4.04578e-05
1.48863e-05
1.79271e-05
3.52988e-05
4.25079e-05
2.87746e-05
6.36144e-06
-6.8879e-06
-5.81243e-06
-1.84995e-06
-2.65938e-06
0.00017234
-0.0029404
-0.00258007
-0.000797589
4.75393e-05
0.000160287
9.78673e-05
5.94109e-05
5.70939e-05
6.11157e-05
0.000109481
0.000283507
0.000476291
0.000554036
0.000448114
0.000230147
4.07651e-05
-4.09979e-05
-4.41701e-05
-2.66973e-05
0.000289996
-0.00345896
-0.00135507
4.67152e-05
0.000182557
6.63455e-05
-6.40276e-06
-2.83858e-05
5.30497e-05
0.000338575
0.000971608
0.00207092
0.00323496
0.00382093
0.00339052
0.00219553
0.000940766
0.000156098
-0.000121493
-0.000122009
0.000342665
-0.00331924
-0.00012354
0.000179725
4.31363e-05
-4.56886e-05
-0.000191009
-0.00032694
-1.09427e-05
0.00148575
0.00474507
0.00982375
0.0154671
0.0188101
0.0175801
0.0125768
0.00674064
0.00250765
0.000443934
-0.000130532
0.000275521
-0.00265139
0.000456382
1.0949e-05
-6.85883e-06
-0.000230631
-0.000758108
-0.00117898
4.82683e-05
0.00551464
0.0172731
0.035084
0.0552604
0.0681648
0.0654346
0.0489111
0.0284364
0.0126167
0.00397844
0.000714378
0.000284452
-0.00180176
0.000428867
-1.31278e-05
-8.2231e-05
-0.000728225
-0.00196679
-0.00256358
0.0016344
0.0174772
0.0504383
0.0996566
0.153889
0.187871
0.180788
0.136844
0.0816659
0.0382996
0.0137642
0.00360451
0.000626263
-0.00115837
0.000289286
2.08706e-05
-0.000297859
-0.00155009
-0.00363573
-0.00352923
0.00777475
0.0447275
0.118858
0.225636
0.335014
0.397609
0.377439
0.28524
0.171413
0.0818252
0.0306776
0.0087657
0.00132198
-0.000698516
0.000198833
1.11556e-05
-0.000565784
-0.00241525
-0.00497377
-0.00257455
0.0202175
0.0872505
0.216034
0.393848
0.565594
0.654243
0.610886
0.45817
0.274838
0.131521
0.0498273
0.0143281
0.00192405
-0.000317147
0.000118892
3.51879e-06
-0.000739281
-0.00286937
-0.0052286
0.000269306
0.0343235
0.127734
0.301155
0.533356
0.748957
0.850824
0.783787
0.582814
0.347687
0.165561
0.0621794
0.0170852
0.00181846
-2.87181e-05
6.93447e-05
2.51559e-05
-0.000685872
-0.00266603
-0.00446669
0.00272918
0.0408151
0.141706
0.325776
0.568728
0.78984
0.888336
0.811226
0.598864
0.354704
0.166942
0.0608292
0.0150743
0.000951325
0.000127257
4.95754e-05
8.17851e-05
-0.000431596
-0.00199556
-0.00345761
0.00254724
0.0345156
0.119652
0.275663
0.482328
0.670301
0.752564
0.684849
0.502864
0.294941
0.135651
0.0464191
0.00947672
-6.07955e-05
0.000147848
4.64527e-05
0.000136624
-0.000128129
-0.00123716
-0.00272762
4.71589e-05
0.019634
0.0753657
0.181133
0.324836
0.458193
0.51833
0.47256
0.345332
0.199204
0.0876388
0.0266358
0.00359368
-0.000588367
8.92222e-05
3.94405e-05
0.000149184
9.24119e-05
-0.00060685
-0.0021591
-0.00252149
0.00516038
0.0323719
0.0885593
0.169192
0.24766
0.285894
0.262587
0.190481
0.106411
0.0429632
0.0102365
1.20606e-05
-0.000540672
2.38593e-05
2.13673e-05
0.000108624
0.000180386
-0.000125055
-0.00141324
-0.00353473
-0.00361684
0.0047735
0.0280148
0.0648513
0.102657
0.123068
0.114268
0.0814983
0.0427542
0.0144661
0.0015338
-0.00100305
-0.000269968
-1.13689e-05
5.33142e-06
4.74548e-05
0.000141061
0.00014178
-0.000493743
-0.00272604
-0.00711688
-0.0121802
-0.0136067
-0.00688038
0.0070673
0.0199876
0.0231509
0.0154763
0.00438652
-0.00211859
-0.00257858
-0.000803902
4.30647e-05
)
;

boundaryField
{
    fixedWalls
    {
        type            zeroGradient;
    }
    left
    {
        type            cyclic;
    }
    right
    {
        type            cyclic;
    }
    frontAndBack
    {
        type            empty;
    }
}


// ************************************************************************* //
